ITEM: TIMESTEP
0
ITEM: NUMBER OF ATOMS
4000
ITEM: BOX BOUNDS pp pp pp
-0.00652487 40.5065
-0.00652487 40.5065
-0.00652487 40.5065
ITEM: ATOMS id type x y z ix iy iz 
2 1 1.90049 2.12248 0.0197187 0 0 0 
3 1 2.11092 0.0170533 1.96714 0 0 0 
5 1 4.13087 0.0313201 0.0574132 0 0 0 
8 1 4.0898 2.18555 1.90893 0 0 0 
43 1 1.98809 3.99879 2.07753 0 0 0 
401 1 0.0186067 0.0247178 4.05469 0 0 0 
402 1 2.04542 2.00281 3.9701 0 0 0 
405 1 4.01165 0.136031 4.00363 0 0 0 
445 1 4.01081 3.99721 4.1611 0 0 0 
7 1 6.1249 0.0419282 2.06135 0 0 0 
12 1 7.97609 2.17034 2.07517 0 0 0 
47 1 6.08979 4.12796 2.01147 0 0 0 
49 1 8.12125 4.07363 0.00533169 0 0 0 
406 1 5.98807 2.19851 4.04977 0 0 0 
409 1 8.24824 0.0521305 4.01153 0 0 0 
449 1 8.15646 4.15986 4.01558 0 0 0 
10 1 10.0944 2.00611 0.0664839 0 0 0 
11 1 10.135 0.0494629 1.94616 0 0 0 
16 1 12.1355 1.95866 2.11696 0 0 0 
51 1 10.1775 4.07287 2.0587 0 0 0 
53 1 12.116 4.03611 0.066217 0 0 0 
410 1 10.1898 2.02581 4.04294 0 0 0 
413 1 12.116 -0.00179714 4.03395 0 0 0 
453 1 12.2431 4.02798 4.08846 0 0 0 
14 1 14.23 2.00598 0.0805521 0 0 0 
20 1 16.1372 2.07239 1.96471 0 0 0 
55 1 14.1741 3.99819 2.15431 0 0 0 
414 1 14.2407 1.91571 4.1498 0 0 0 
417 1 16.2265 0.0846136 4.06926 0 0 0 
457 1 16.1937 4.11217 4.02269 0 0 0 
18 1 18.188 2.00733 0.0421625 0 0 0 
22 1 22.3011 1.92995 0.0287717 0 0 0 
23 1 22.2854 0.0509156 2.1236 0 0 0 
24 1 20.2369 2.0554 2.05041 0 0 0 
59 1 18.2558 4.13646 2.00198 0 0 0 
61 1 20.3082 3.9175 0.0306886 0 0 0 
63 1 22.1959 4.03031 2.06854 0 0 0 
418 1 18.318 2.03685 4.01919 0 0 0 
422 1 22.2647 1.98947 4.05106 0 0 0 
461 1 20.2919 4.13497 4.04425 0 0 0 
25 1 24.3756 0.0182628 0.0335648 0 0 0 
27 1 26.2779 0.0419464 1.92076 0 0 0 
28 1 24.2454 1.97263 1.98295 0 0 0 
65 1 24.1942 3.87855 0.0633072 0 0 0 
67 1 26.2247 3.90807 1.97156 0 0 0 
426 1 26.3215 2.11345 4.07259 0 0 0 
465 1 24.2787 4.1363 4.1884 0 0 0 
29 1 28.4834 0.0133148 0.0903971 0 0 0 
30 1 30.3417 1.98646 0.00363668 0 0 0 
32 1 28.2453 1.90529 1.9729 0 0 0 
69 1 28.3762 4.07119 0.114864 0 0 0 
71 1 30.3589 4.03679 2.03801 0 0 0 
430 1 30.2911 1.97386 3.98381 0 0 0 
469 1 28.297 4.00138 3.95313 0 0 0 
35 1 34.4117 0.0188991 2.04015 0 0 0 
36 1 32.3944 2.03567 2.1401 0 0 0 
73 1 32.3463 4.0526 0.0159605 0 0 0 
75 1 34.4949 4.04658 1.92901 0 0 0 
433 1 32.509 0.00638504 4.04766 0 0 0 
434 1 34.3382 2.14388 3.99265 0 0 0 
473 1 32.352 3.93242 4.07068 0 0 0 
1 1 40.5007 0.114831 0.0338051 -1 0 0 
4 1 40.4571 2.07252 2.10122 -1 0 0 
41 1 40.4334 4.08995 0.0315743 -1 0 0 
441 1 40.4835 4.10723 3.99398 -1 0 0 
38 1 38.4558 2.11841 -0.000102656 0 0 0 
39 1 38.423 0.0304155 2.00713 0 0 0 
40 1 36.3761 2.23398 1.92588 0 0 0 
77 1 36.5303 4.03148 0.00862423 0 0 0 
79 1 38.4576 4.11969 2.06485 0 0 0 
437 1 36.4855 0.0469118 3.92198 0 0 0 
438 1 38.3396 2.11231 3.97796 0 0 0 
477 1 36.3724 4.16716 4.02281 0 0 0 
48 1 3.99914 6.17622 1.92985 0 0 0 
83 1 1.94656 8.10736 1.98061 0 0 0 
85 1 3.91914 8.1974 0.022135 0 0 0 
442 1 1.93348 6.11074 3.92675 0 0 0 
485 1 4.11239 8.07849 4.02097 0 0 0 
52 1 8.07731 6.20864 1.91858 0 0 0 
87 1 6.10906 8.21233 2.0332 0 0 0 
446 1 6.00479 6.13064 4.02594 0 0 0 
489 1 8.03899 7.9795 4.00057 0 0 0 
50 1 10.1992 6.08429 0.0620653 0 0 0 
56 1 12.1866 6.01907 1.98841 0 0 0 
91 1 10.0893 8.09336 2.01752 0 0 0 
450 1 10.1153 6.18129 4.08928 0 0 0 
493 1 12.1583 8.04702 4.07048 0 0 0 
54 1 14.2412 6.10671 0.053698 0 0 0 
60 1 16.1972 6.17723 2.00821 0 0 0 
95 1 14.1932 8.08031 2.14004 0 0 0 
97 1 16.1996 8.04316 0.0859383 0 0 0 
454 1 14.2243 6.12576 4.07777 0 0 0 
497 1 16.2432 8.18282 4.08256 0 0 0 
58 1 18.292 6.11255 0.0514298 0 0 0 
62 1 22.221 5.91821 0.0029596 0 0 0 
64 1 20.313 6.16381 2.13907 0 0 0 
99 1 18.2466 8.06863 2.10612 0 0 0 
101 1 20.2305 8.15056 0.0895333 0 0 0 
103 1 22.2776 8.04168 2.16153 0 0 0 
458 1 18.1804 6.08036 4.03562 0 0 0 
462 1 22.3303 6.16157 4.25472 0 0 0 
501 1 20.3018 8.10392 4.14239 0 0 0 
66 1 26.345 6.08901 0.0297299 0 0 0 
68 1 24.2157 6.04103 2.0018 0 0 0 
105 1 24.2167 8.05504 0.0349569 0 0 0 
107 1 26.235 8.17133 1.9764 0 0 0 
466 1 26.1774 6.2228 4.0536 0 0 0 
505 1 24.2619 8.22136 4.13086 0 0 0 
70 1 30.319 6.18858 0.0354989 0 0 0 
72 1 28.1526 6.09479 2.01052 0 0 0 
111 1 30.234 8.11333 1.9444 0 0 0 
470 1 30.3044 6.06604 4.07839 0 0 0 
509 1 28.3217 8.08467 4.00061 0 0 0 
76 1 32.2703 6.13337 1.91033 0 0 0 
115 1 34.326 8.22318 1.99682 0 0 0 
474 1 34.311 6.08871 3.98515 0 0 0 
513 1 32.3785 8.08647 4.08386 0 0 0 
44 1 40.5061 6.1402 1.94453 -1 0 0 
481 1 40.5043 8.19605 3.96657 -1 0 0 
80 1 36.333 6.21811 1.9893 0 0 0 
119 1 38.3386 8.13792 1.96682 0 0 0 
478 1 38.4679 6.18129 3.90172 0 0 0 
517 1 36.3692 7.9706 4.04041 0 0 0 
82 1 1.95184 10.2433 -0.000296592 0 0 0 
88 1 4.06594 10.222 1.97598 0 0 0 
123 1 1.89983 12.1628 2.10536 0 0 0 
125 1 4.10535 12.2525 0.0155501 0 0 0 
482 1 1.94401 10.1429 3.95558 0 0 0 
525 1 3.9996 12.1871 4.06643 0 0 0 
92 1 8.06086 10.0344 1.92436 0 0 0 
127 1 6.04318 12.2091 2.04574 0 0 0 
486 1 6.0281 10.1404 4.15418 0 0 0 
529 1 8.07103 12.011 4.1222 0 0 0 
90 1 10.1595 10.0681 0.112179 0 0 0 
96 1 12.1762 9.98989 2.01218 0 0 0 
131 1 10.0735 11.9514 2.08877 0 0 0 
133 1 12.1637 12.0194 0.0133238 0 0 0 
490 1 10.1257 10.0632 3.97557 0 0 0 
533 1 12.1786 12.0347 4.07267 0 0 0 
94 1 14.3449 10.0864 0.0131704 0 0 0 
100 1 16.2672 10.174 2.0532 0 0 0 
135 1 14.2675 12.0884 1.98166 0 0 0 
137 1 16.2007 12.2173 -0.00436621 0 0 0 
494 1 14.2015 10.1369 4.03883 0 0 0 
537 1 16.2862 12.1862 4.1356 0 0 0 
98 1 18.1804 10.2068 0.0245115 0 0 0 
104 1 20.1894 10.1242 2.01483 0 0 0 
139 1 18.1995 12.2071 2.09648 0 0 0 
141 1 20.2775 12.0024 0.0541787 0 0 0 
143 1 22.2067 12.1529 2.07159 0 0 0 
498 1 18.2472 10.0741 4.12998 0 0 0 
502 1 22.2732 10.1217 4.04404 0 0 0 
541 1 20.2318 12.109 4.05306 0 0 0 
108 1 24.403 10.1967 1.94014 0 0 0 
147 1 26.4207 12.2236 2.01325 0 0 0 
506 1 26.244 10.2291 3.95905 0 0 0 
545 1 24.3137 12.2511 4.11598 0 0 0 
112 1 28.3056 10.0518 1.99529 0 0 0 
149 1 28.2844 12.1499 0.064565 0 0 0 
151 1 30.2716 12.1768 2.06041 0 0 0 
510 1 30.3153 10.2269 4.01215 0 0 0 
549 1 28.3283 12.2154 4.02923 0 0 0 
114 1 34.2409 10.1026 0.0346101 0 0 0 
116 1 32.2954 10.1741 1.93924 0 0 0 
155 1 34.3656 12.1832 1.97974 0 0 0 
514 1 34.2647 10.1316 3.98183 0 0 0 
553 1 32.2294 12.0985 4.10458 0 0 0 
84 1 40.2672 10.2699 2.02154 -1 0 0 
521 1 40.3483 12.1363 4.16228 -1 0 0 
118 1 38.465 10.1742 0.00606789 0 0 0 
120 1 36.396 10.0925 2.04866 0 0 0 
159 1 38.3482 12.2538 2.05649 0 0 0 
518 1 38.3604 10.1444 4.07958 0 0 0 
557 1 36.4223 12.1743 4.03869 0 0 0 
128 1 4.08598 14.1116 2.03624 0 0 0 
163 1 1.99455 16.1768 1.96456 0 0 0 
522 1 2.07981 14.238 4.11493 0 0 0 
561 1 0.0124008 16.222 3.99284 0 0 0 
565 1 4.13776 16.1047 4.06713 0 0 0 
132 1 8.09215 14.2173 1.93868 0 0 0 
167 1 6.04924 16.2583 1.94944 0 0 0 
526 1 6.08644 14.1831 4.07567 0 0 0 
569 1 8.15822 16.2458 3.94325 0 0 0 
136 1 12.1419 14.1157 2.01399 0 0 0 
171 1 10.0464 16.2491 2.00047 0 0 0 
173 1 12.0767 16.2183 0.159159 0 0 0 
530 1 10.0576 14.1783 3.88125 0 0 0 
573 1 12.1328 16.1954 3.95767 0 0 0 
134 1 14.2061 14.0919 0.0527441 0 0 0 
140 1 16.1943 14.1615 1.98665 0 0 0 
175 1 14.2033 16.1053 2.03886 0 0 0 
534 1 14.2042 14.1234 4.08761 0 0 0 
577 1 16.0838 16.2299 4.11414 0 0 0 
142 1 22.3106 14.1697 -0.00165982 0 0 0 
144 1 20.2202 14.13 2.01296 0 0 0 
179 1 18.3771 16.2315 2.04788 0 0 0 
181 1 20.2595 16.1878 0.0129704 0 0 0 
183 1 22.3315 16.262 1.99635 0 0 0 
538 1 18.2533 14.1747 4.01461 0 0 0 
542 1 22.2339 14.17 4.0968 0 0 0 
581 1 20.176 16.2786 4.10267 0 0 0 
146 1 26.2472 14.1588 0.0391075 0 0 0 
148 1 24.3906 14.1336 2.12213 0 0 0 
187 1 26.3628 16.3111 2.006 0 0 0 
546 1 26.3818 14.3428 3.98471 0 0 0 
585 1 24.3531 16.1604 4.08006 0 0 0 
150 1 30.3065 14.1642 0.0415479 0 0 0 
152 1 28.3704 14.2924 1.871 0 0 0 
191 1 30.4386 16.2773 1.90711 0 0 0 
550 1 30.2906 14.1447 4.0314 0 0 0 
589 1 28.3845 16.2476 4.05018 0 0 0 
156 1 32.3184 14.1584 2.12287 0 0 0 
195 1 34.2913 16.277 1.95433 0 0 0 
554 1 34.4548 14.2232 3.92136 0 0 0 
593 1 32.272 16.2009 4.05941 0 0 0 
124 1 40.3783 14.2109 1.92807 -1 0 0 
160 1 36.4618 14.2845 1.93167 0 0 0 
197 1 36.4006 16.3034 -0.000298505 0 0 0 
199 1 38.4941 16.2109 2.05667 0 0 0 
558 1 38.4787 14.075 4.13522 0 0 0 
597 1 36.4407 16.1827 4.12209 0 0 0 
164 1 0.032812 18.2133 2.00071 0 0 0 
168 1 4.08936 18.211 2.00712 0 0 0 
203 1 1.91589 20.1944 2.07687 0 0 0 
205 1 4.07719 20.2575 0.0364516 0 0 0 
208 1 4.0964 22.1904 2.05364 0 0 0 
562 1 2.01285 18.259 4.05467 0 0 0 
601 1 0.0717732 20.232 3.9903 0 0 0 
602 1 2.00504 22.3075 3.95156 0 0 0 
605 1 3.99829 20.3442 4.01919 0 0 0 
172 1 8.12971 18.2261 1.92108 0 0 0 
206 1 6.02355 22.3318 0.0264382 0 0 0 
207 1 6.14616 20.1846 1.97559 0 0 0 
212 1 8.08729 22.302 1.9334 0 0 0 
566 1 6.07874 18.1544 4.09571 0 0 0 
606 1 6.18196 22.179 4.0395 0 0 0 
609 1 8.15774 20.1637 4.00746 0 0 0 
176 1 12.1543 18.2105 1.99528 0 0 0 
211 1 10.1174 20.2777 1.88812 0 0 0 
216 1 12.0577 22.2407 1.97705 0 0 0 
570 1 10.1456 18.1419 3.96453 0 0 0 
610 1 10.125 22.3356 4.03402 0 0 0 
613 1 12.118 20.3648 4.04012 0 0 0 
174 1 14.1784 18.1951 0.0900823 0 0 0 
180 1 16.2976 18.1358 1.97186 0 0 0 
215 1 14.1444 20.289 2.14698 0 0 0 
220 1 16.2262 22.2007 2.00383 0 0 0 
574 1 14.1644 18.2504 3.95653 0 0 0 
614 1 14.3422 22.1801 4.1151 0 0 0 
617 1 16.242 20.0675 4.0211 0 0 0 
178 1 18.2384 18.2078 0.0366894 0 0 0 
182 1 22.2815 18.2459 0.102099 0 0 0 
184 1 20.3454 18.2316 1.99969 0 0 0 
219 1 18.1979 20.2203 2.01636 0 0 0 
222 1 22.3391 22.2653 0.0228876 0 0 0 
223 1 22.1927 20.3536 2.00263 0 0 0 
224 1 20.1688 22.2581 2.07851 0 0 0 
578 1 18.3076 18.2034 4.00271 0 0 0 
582 1 22.4368 18.215 4.01335 0 0 0 
618 1 18.2713 22.1292 4.03977 0 0 0 
621 1 20.2569 20.2168 3.99443 0 0 0 
622 1 22.2204 22.2435 4.00963 0 0 0 
188 1 24.4 18.2146 1.99795 0 0 0 
225 1 24.3195 20.2329 0.0696756 0 0 0 
227 1 26.4471 20.2158 1.88223 0 0 0 
228 1 24.2335 22.2391 2.06288 0 0 0 
586 1 26.457 18.2418 3.96012 0 0 0 
625 1 24.3689 20.1559 4.08428 0 0 0 
626 1 26.4307 22.2403 3.9622 0 0 0 
192 1 28.3785 18.2804 1.9994 0 0 0 
230 1 30.4602 22.3436 0.129517 0 0 0 
231 1 30.4761 20.2432 1.99953 0 0 0 
232 1 28.4314 22.2503 2.05835 0 0 0 
590 1 30.4449 18.118 4.03675 0 0 0 
629 1 28.3941 20.2086 4.12688 0 0 0 
630 1 30.4056 22.3208 4.10383 0 0 0 
196 1 32.3716 18.1905 2.04807 0 0 0 
233 1 32.3861 20.2305 0.0396347 0 0 0 
234 1 34.5842 22.2989 0.179278 0 0 0 
235 1 34.4511 20.3004 2.10895 0 0 0 
236 1 32.409 22.2998 2.10908 0 0 0 
594 1 34.3698 18.1179 4.14552 0 0 0 
633 1 32.3826 20.223 4.12284 0 0 0 
634 1 34.515 22.3043 4.02211 0 0 0 
204 1 40.5007 22.3321 1.92749 -1 0 0 
198 1 38.4694 18.2042 0.0376161 0 0 0 
200 1 36.4683 18.1496 2.11397 0 0 0 
237 1 36.3983 20.15 0.0805194 0 0 0 
238 1 38.4959 22.2653 0.0982786 0 0 0 
239 1 38.5017 20.2605 2.13855 0 0 0 
240 1 36.5642 22.3547 2.0167 0 0 0 
598 1 38.5571 18.1216 4.0111 0 0 0 
637 1 36.5507 20.3843 4.0127 0 0 0 
638 1 38.6635 22.3249 4.096 0 0 0 
242 1 2.08274 26.2563 0.137214 0 0 0 
243 1 2.00853 24.3156 1.96228 0 0 0 
244 1 0.055246 26.2436 2.07222 0 0 0 
245 1 4.06065 24.3426 0.00429649 0 0 0 
248 1 4.02145 26.3208 2.05946 0 0 0 
641 1 0.111161 24.4956 4.14777 0 0 0 
642 1 2.12745 26.397 4.13075 0 0 0 
645 1 4.21644 24.3217 3.89946 0 0 0 
246 1 6.03153 26.4031 0.0192745 0 0 0 
247 1 6.1518 24.2944 1.97867 0 0 0 
252 1 8.15114 26.4336 1.94051 0 0 0 
646 1 6.02662 26.4481 4.01005 0 0 0 
649 1 8.14967 24.3193 3.96952 0 0 0 
251 1 10.1051 24.3055 1.81358 0 0 0 
256 1 12.1632 26.2871 1.94525 0 0 0 
650 1 10.1003 26.3266 4.02668 0 0 0 
653 1 12.0472 24.2287 4.03831 0 0 0 
254 1 14.2144 26.3492 0.0660842 0 0 0 
255 1 14.0953 24.241 2.03754 0 0 0 
260 1 16.1339 26.2264 2.09893 0 0 0 
654 1 14.0334 26.3097 4.11221 0 0 0 
657 1 16.1674 24.3177 4.02935 0 0 0 
259 1 18.2141 24.3708 1.90969 0 0 0 
262 1 22.2923 26.3876 0.025418 0 0 0 
263 1 22.2394 24.3557 1.98174 0 0 0 
264 1 20.269 26.2643 1.98881 0 0 0 
658 1 18.3111 26.3359 3.99658 0 0 0 
661 1 20.2013 24.2831 4.06081 0 0 0 
662 1 22.2139 26.4092 4.0187 0 0 0 
265 1 24.2094 24.2934 0.0934493 0 0 0 
267 1 26.4109 24.1558 1.90356 0 0 0 
268 1 24.2902 26.3102 2.03003 0 0 0 
665 1 24.3556 24.266 3.99537 0 0 0 
666 1 26.3144 26.3374 3.94657 0 0 0 
271 1 30.4089 24.2833 2.038 0 0 0 
272 1 28.4448 26.2494 1.99357 0 0 0 
669 1 28.3659 24.2618 4.01404 0 0 0 
670 1 30.4565 26.2788 4.07061 0 0 0 
273 1 32.5098 24.3195 0.0943579 0 0 0 
274 1 34.4808 26.3197 0.056653 0 0 0 
275 1 34.4612 24.3094 2.1606 0 0 0 
276 1 32.3568 26.3267 2.054 0 0 0 
673 1 32.3675 24.322 3.97923 0 0 0 
674 1 34.4098 26.2797 4.081 0 0 0 
277 1 36.5919 24.243 0.0684006 0 0 0 
279 1 38.5763 24.3239 2.12115 0 0 0 
280 1 36.6158 26.4622 2.07053 0 0 0 
677 1 36.5847 24.2635 4.01333 0 0 0 
678 1 38.5686 26.2931 4.20422 0 0 0 
282 1 1.97658 30.4114 0.123399 0 0 0 
283 1 2.00771 28.424 2.06335 0 0 0 
285 1 3.94436 28.386 0.0935478 0 0 0 
288 1 4.04745 30.3949 2.02015 0 0 0 
682 1 2.08988 30.495 4.05021 0 0 0 
685 1 3.98571 28.5522 4.04154 0 0 0 
286 1 6.03163 30.2889 0.0182681 0 0 0 
287 1 6.15356 28.3593 2.0261 0 0 0 
292 1 8.1968 30.384 2.03247 0 0 0 
686 1 6.05699 30.5206 3.98526 0 0 0 
689 1 8.12108 28.3923 3.9291 0 0 0 
291 1 10.1381 28.2636 1.9108 0 0 0 
296 1 12.0255 30.3777 2.02406 0 0 0 
690 1 10.0975 30.2686 3.94549 0 0 0 
693 1 12.2072 28.3742 3.96615 0 0 0 
294 1 14.0926 30.313 0.00894035 0 0 0 
295 1 14.1866 28.4572 1.97581 0 0 0 
297 1 16.164 28.3061 0.0394774 0 0 0 
300 1 16.261 30.3913 2.01519 0 0 0 
694 1 14.2597 30.4085 4.08009 0 0 0 
697 1 16.1682 28.2085 4.0871 0 0 0 
298 1 18.2638 30.4563 0.0912083 0 0 0 
299 1 18.3175 28.3856 2.08738 0 0 0 
302 1 22.2658 30.3437 0.0297872 0 0 0 
303 1 22.2143 28.4511 2.05791 0 0 0 
304 1 20.2161 30.3155 2.04907 0 0 0 
698 1 18.1638 30.3591 4.06004 0 0 0 
701 1 20.2559 28.3601 4.06746 0 0 0 
702 1 22.2268 30.4309 4.01601 0 0 0 
306 1 26.319 30.3728 0.0872193 0 0 0 
307 1 26.3061 28.3471 2.07821 0 0 0 
308 1 24.379 30.3712 2.18702 0 0 0 
705 1 24.3319 28.3499 4.00335 0 0 0 
706 1 26.2556 30.3907 4.10185 0 0 0 
309 1 28.2745 28.3155 0.00634401 0 0 0 
310 1 30.3985 30.3398 -0.00369601 0 0 0 
311 1 30.3018 28.3183 2.11783 0 0 0 
312 1 28.3062 30.3548 2.07438 0 0 0 
709 1 28.4209 28.2523 4.0133 0 0 0 
710 1 30.4861 30.3192 4.10966 0 0 0 
313 1 32.3036 28.364 0.00491314 0 0 0 
314 1 34.4616 30.3944 0.0817091 0 0 0 
315 1 34.4876 28.3165 2.11216 0 0 0 
316 1 32.4822 30.299 2.01024 0 0 0 
713 1 32.5736 28.3033 4.04262 0 0 0 
714 1 34.5915 30.4654 4.16665 0 0 0 
281 1 40.475 28.2758 0.0714864 -1 0 0 
284 1 40.4575 30.3331 2.02892 -1 0 0 
681 1 40.4859 28.2917 4.07007 -1 0 0 
317 1 36.5981 28.3036 0.0408926 0 0 0 
318 1 38.468 30.4603 0.180126 0 0 0 
319 1 38.55 28.3097 2.16635 0 0 0 
320 1 36.4909 30.33 2.02845 0 0 0 
717 1 36.3723 28.3492 4.13573 0 0 0 
718 1 38.577 30.3113 4.13467 0 0 0 
322 1 2.08048 34.392 0.0609285 0 0 0 
323 1 2.1396 32.3796 1.97474 0 0 0 
325 1 3.93757 32.4247 0.00894897 0 0 0 
328 1 4.00708 34.3969 2.04385 0 0 0 
722 1 2.04311 34.4792 3.92963 0 0 0 
725 1 4.11766 32.4497 3.99044 0 0 0 
327 1 6.06826 32.4146 1.91845 0 0 0 
329 1 8.10019 32.3753 0.127251 0 0 0 
332 1 8.1258 34.5066 1.92439 0 0 0 
726 1 6.04365 34.3668 4.01569 0 0 0 
729 1 8.10381 32.4892 4.00274 0 0 0 
331 1 10.065 32.5603 2.00897 0 0 0 
336 1 12.0984 34.4112 2.23932 0 0 0 
730 1 10.0446 34.4077 4.11714 0 0 0 
733 1 12.1459 32.3964 4.15164 0 0 0 
334 1 14.1205 34.4215 0.123575 0 0 0 
335 1 14.0703 32.3603 2.03 0 0 0 
337 1 16.1162 32.3716 0.00538349 0 0 0 
340 1 16.1818 34.4859 2.00608 0 0 0 
734 1 14.1456 34.3931 4.10896 0 0 0 
737 1 16.3131 32.4448 4.04826 0 0 0 
339 1 18.1517 32.468 2.02096 0 0 0 
341 1 20.2963 32.4225 0.0335267 0 0 0 
342 1 22.1662 34.3936 0.0795878 0 0 0 
343 1 22.0969 32.4802 2.03142 0 0 0 
344 1 20.1972 34.5393 2.04366 0 0 0 
738 1 18.1419 34.4644 4.06883 0 0 0 
741 1 20.1444 32.4436 4.10734 0 0 0 
742 1 22.2026 34.4101 3.98296 0 0 0 
345 1 24.1879 32.3284 0.0885307 0 0 0 
346 1 26.33 34.3342 0.132767 0 0 0 
347 1 26.2984 32.3212 2.00325 0 0 0 
348 1 24.2553 34.1967 2.02995 0 0 0 
745 1 24.1522 32.3692 4.08858 0 0 0 
746 1 26.436 34.35 4.03222 0 0 0 
349 1 28.2383 32.2734 -0.00245589 0 0 0 
351 1 30.2057 32.3025 2.03942 0 0 0 
352 1 28.4177 34.3169 2.01127 0 0 0 
749 1 28.4216 32.3179 4.09266 0 0 0 
750 1 30.4064 34.3838 4.16198 0 0 0 
353 1 32.4912 32.4022 0.0769196 0 0 0 
354 1 34.5162 34.4751 0.0614954 0 0 0 
355 1 34.465 32.4435 2.12104 0 0 0 
356 1 32.4722 34.4163 2.04515 0 0 0 
753 1 32.324 32.3372 4.08483 0 0 0 
754 1 34.455 34.4144 4.15161 0 0 0 
321 1 40.3613 32.3908 0.121868 -1 0 0 
324 1 40.4784 34.5134 2.04319 -1 0 0 
721 1 40.4928 32.4455 4.00361 -1 0 0 
357 1 36.5326 32.4347 0.0759154 0 0 0 
358 1 38.5305 34.4628 0.0143825 0 0 0 
359 1 38.5584 32.3893 2.10098 0 0 0 
360 1 36.5898 34.3808 2.11137 0 0 0 
757 1 36.549 32.3842 4.15695 0 0 0 
758 1 38.5809 34.3514 4.1838 0 0 0 
361 1 0.128661 36.4047 0.0137176 0 0 0 
363 1 2.06217 36.4396 2.13468 0 0 0 
364 1 0.185533 38.505 1.91743 0 0 0 
365 1 4.12403 36.5219 0.0307307 0 0 0 
368 1 3.97982 38.5045 1.93085 0 0 0 
761 1 0.146485 36.5826 4.09505 0 0 0 
762 1 2.07812 38.56 3.99543 0 0 0 
765 1 4.14354 36.5277 4.07766 0 0 0 
367 1 6.01033 36.5116 2.00214 0 0 0 
369 1 8.13739 36.4596 0.0175851 0 0 0 
372 1 8.02995 38.5744 1.87863 0 0 0 
766 1 6.1013 38.5004 4.01936 0 0 0 
769 1 8.11163 36.4407 4.00789 0 0 0 
371 1 10.1642 36.4597 2.01982 0 0 0 
373 1 12.1846 36.4482 0.00263632 0 0 0 
376 1 12.1437 38.4817 1.92815 0 0 0 
770 1 10.0972 38.5243 3.98056 0 0 0 
773 1 12.1857 36.513 4.01487 0 0 0 
15 1 14.1558 40.4318 2.07247 0 -1 0 
17 1 16.1235 40.4808 0.0449982 0 -1 0 
374 1 14.1403 38.614 0.0405421 0 0 0 
375 1 14.1473 36.4899 2.0659 0 0 0 
377 1 16.1278 36.5333 0.0677957 0 0 0 
380 1 16.2365 38.4905 2.08366 0 0 0 
774 1 14.1512 38.5896 4.19307 0 0 0 
777 1 16.1872 36.3458 4.04501 0 0 0 
19 1 18.2533 40.4951 2.01977 0 -1 0 
21 1 20.2714 40.5006 0.118991 0 -1 0 
421 1 20.3192 40.4443 4.09104 0 -1 0 
378 1 18.1876 38.4763 0.0610386 0 0 0 
379 1 18.097 36.477 2.11952 0 0 0 
381 1 20.189 36.4124 0.0799921 0 0 0 
382 1 22.3641 38.4544 0.080663 0 0 0 
383 1 22.1734 36.4485 2.02842 0 0 0 
384 1 20.1665 38.3976 2.08613 0 0 0 
778 1 18.2493 38.444 4.05636 0 0 0 
781 1 20.323 36.4689 4.13554 0 0 0 
782 1 22.3729 38.3833 4.09442 0 0 0 
425 1 24.2265 40.501 4.07527 0 -1 0 
385 1 24.2904 36.5176 0.0317977 0 0 0 
386 1 26.3316 38.4599 0.0313126 0 0 0 
387 1 26.2816 36.3582 1.95459 0 0 0 
388 1 24.2698 38.5217 2.11501 0 0 0 
785 1 24.3365 36.3272 4.04742 0 0 0 
786 1 26.2924 38.4425 3.96919 0 0 0 
31 1 30.454 40.4295 2.0291 0 -1 0 
429 1 28.2971 40.4724 3.90741 0 -1 0 
389 1 28.4399 36.3653 0.0616755 0 0 0 
390 1 30.3891 38.4264 0.0632467 0 0 0 
391 1 30.4206 36.2978 2.06057 0 0 0 
392 1 28.3397 38.4433 2.04963 0 0 0 
789 1 28.3853 36.368 3.9688 0 0 0 
790 1 30.4035 38.5155 4.05303 0 0 0 
393 1 32.3605 36.3792 0.148498 0 0 0 
394 1 34.3788 38.4643 0.00117105 0 0 0 
395 1 34.4215 36.371 2.12395 0 0 0 
396 1 32.5137 38.3898 2.00796 0 0 0 
793 1 32.3054 36.3596 4.03066 0 0 0 
794 1 34.5275 38.5072 4.04674 0 0 0 
397 1 36.4963 36.4325 0.00683113 0 0 0 
399 1 38.591 36.6141 2.00254 0 0 0 
400 1 36.487 38.3943 1.93535 0 0 0 
797 1 36.6838 36.4084 4.10266 0 0 0 
798 1 38.5434 38.411 3.93711 0 0 0 
403 1 1.97315 0.0422172 6.08251 0 0 0 
408 1 3.89446 2.09406 6.06073 0 0 0 
443 1 2.05246 4.08373 6.04367 0 0 0 
801 1 0.0094272 0.0412731 8.05009 0 0 0 
802 1 1.95984 2.20296 7.95381 0 0 0 
805 1 4.18387 0.177114 8.0613 0 0 0 
845 1 4.0418 4.08377 8.11929 0 0 0 
407 1 6.0611 0.0639606 6.0411 0 0 0 
412 1 8.07958 2.0717 5.98661 0 0 0 
447 1 6.13163 4.17778 6.06202 0 0 0 
806 1 6.12429 2.09748 7.92469 0 0 0 
809 1 8.18966 0.119909 8.06417 0 0 0 
849 1 8.06731 4.11229 7.84059 0 0 0 
411 1 10.2555 0.0332549 6.0806 0 0 0 
416 1 12.1633 2.02972 6.16943 0 0 0 
451 1 10.2155 4.10559 6.00224 0 0 0 
810 1 10.1275 2.1666 8.0058 0 0 0 
813 1 12.1701 0.0708823 8.28992 0 0 0 
853 1 12.1707 4.10687 8.16987 0 0 0 
415 1 14.0229 0.0843816 6.22085 0 0 0 
420 1 16.317 1.97083 6.02791 0 0 0 
455 1 14.1469 3.99884 5.9969 0 0 0 
814 1 14.1851 2.12041 8.15663 0 0 0 
817 1 16.2144 0.114483 8.09788 0 0 0 
857 1 16.3048 4.07547 8.07805 0 0 0 
419 1 18.2717 0.102489 6.01319 0 0 0 
424 1 20.4205 2.04074 6.05161 0 0 0 
459 1 18.2777 3.93162 6.09143 0 0 0 
463 1 22.3636 4.01529 6.1661 0 0 0 
818 1 18.2916 2.01778 8.13895 0 0 0 
821 1 20.2946 0.040583 8.21542 0 0 0 
822 1 22.2675 2.00804 8.16408 0 0 0 
861 1 20.2987 3.95065 8.08451 0 0 0 
427 1 26.2851 0.00397813 5.99012 0 0 0 
428 1 24.3189 1.88242 6.06814 0 0 0 
467 1 26.3107 4.17372 6.09284 0 0 0 
825 1 24.2728 0.0309598 8.16625 0 0 0 
826 1 26.3624 2.22925 8.18656 0 0 0 
865 1 24.2743 4.09976 8.0417 0 0 0 
432 1 28.3276 2.09361 5.98753 0 0 0 
471 1 30.3633 4.13655 6.03179 0 0 0 
830 1 30.3597 2.04091 8.2004 0 0 0 
869 1 28.3688 3.99779 8.00673 0 0 0 
436 1 32.255 1.96953 6.08035 0 0 0 
475 1 34.3575 4.05798 6.06848 0 0 0 
834 1 34.2917 2.06688 8.05662 0 0 0 
873 1 32.3586 4.07637 8.15675 0 0 0 
404 1 40.5027 2.1895 6.05656 -1 0 0 
841 1 40.4996 4.05997 8.09661 -1 0 0 
439 1 38.5637 0.0782171 5.91244 0 0 0 
440 1 36.4678 2.13737 6.00285 0 0 0 
479 1 38.5093 4.07867 5.96737 0 0 0 
837 1 36.4748 0.032398 8.0667 0 0 0 
838 1 38.539 2.03231 7.98649 0 0 0 
877 1 36.4936 4.05081 8.03163 0 0 0 
444 1 0.0355039 6.22652 5.95061 0 0 0 
448 1 4.06134 6.09985 6.10931 0 0 0 
483 1 2.05351 8.13044 5.93721 0 0 0 
842 1 1.97806 6.10226 8.1056 0 0 0 
885 1 4.0417 8.10706 8.13677 0 0 0 
452 1 8.14754 6.04582 5.97745 0 0 0 
487 1 6.11758 8.11962 6.12136 0 0 0 
846 1 6.01104 6.13568 8.12146 0 0 0 
889 1 8.16081 8.00172 8.14995 0 0 0 
456 1 12.2257 6.14438 6.07235 0 0 0 
491 1 10.0745 8.145 6.10474 0 0 0 
850 1 10.0741 6.09246 8.07465 0 0 0 
893 1 12.1571 8.09561 8.17527 0 0 0 
460 1 16.2102 6.1795 6.13559 0 0 0 
495 1 14.1705 8.10459 6.15444 0 0 0 
854 1 14.2406 6.10873 8.01664 0 0 0 
897 1 16.2678 8.19765 8.17551 0 0 0 
464 1 20.1507 6.14815 6.08722 0 0 0 
499 1 18.2812 8.1493 6.13541 0 0 0 
503 1 22.1995 8.20552 6.15959 0 0 0 
858 1 18.2228 6.06144 8.03466 0 0 0 
862 1 22.0965 6.20187 8.05109 0 0 0 
901 1 20.2343 8.16073 8.15319 0 0 0 
468 1 24.2738 6.11712 6.13899 0 0 0 
507 1 26.2827 8.14245 6.06342 0 0 0 
866 1 26.2599 6.09777 8.16767 0 0 0 
905 1 24.2222 8.1078 8.12722 0 0 0 
472 1 28.2349 6.08938 5.93737 0 0 0 
511 1 30.3269 8.07048 6.04002 0 0 0 
870 1 30.2411 6.10319 8.06291 0 0 0 
909 1 28.2641 8.06327 8.15825 0 0 0 
476 1 32.2427 5.96748 6.06796 0 0 0 
515 1 34.4144 8.07584 6.01471 0 0 0 
874 1 34.3669 6.02569 8.11934 0 0 0 
913 1 32.2241 8.03434 7.98176 0 0 0 
881 1 40.4607 8.07902 8.09567 -1 0 0 
480 1 36.4198 6.13938 6.10153 0 0 0 
519 1 38.4069 8.07615 6.05321 0 0 0 
878 1 38.4307 6.05906 7.9365 0 0 0 
917 1 36.3621 8.146 8.05215 0 0 0 
488 1 3.89699 10.0149 6.07317 0 0 0 
523 1 2.06675 12.1544 6.08781 0 0 0 
882 1 1.89433 10.0941 7.97732 0 0 0 
925 1 4.05526 12.0451 7.9265 0 0 0 
492 1 8.14777 10.0634 6.14019 0 0 0 
527 1 6.12908 12.1925 6.08003 0 0 0 
886 1 5.98816 10.1448 7.9949 0 0 0 
929 1 8.1416 12.1372 8.12586 0 0 0 
496 1 12.0832 10.0534 6.03945 0 0 0 
531 1 10.1005 12.1873 5.95556 0 0 0 
890 1 10.2116 10.0254 8.0882 0 0 0 
933 1 12.1455 12.2462 8.09978 0 0 0 
500 1 16.2746 10.2035 6.16721 0 0 0 
535 1 14.1043 12.0918 6.06093 0 0 0 
894 1 14.2473 10.2407 8.08763 0 0 0 
937 1 16.352 12.0868 8.10479 0 0 0 
504 1 20.2597 10.2053 6.06081 0 0 0 
539 1 18.3457 12.0475 6.13725 0 0 0 
543 1 22.3196 12.3061 6.16884 0 0 0 
898 1 18.1964 10.1102 8.08904 0 0 0 
902 1 22.2579 10.2097 8.15539 0 0 0 
941 1 20.3014 12.2019 8.16264 0 0 0 
508 1 24.3083 10.3472 5.98613 0 0 0 
547 1 26.255 12.1912 6.12137 0 0 0 
906 1 26.21 10.1719 8.24434 0 0 0 
945 1 24.2412 12.1552 8.09633 0 0 0 
512 1 28.2092 10.111 6.18166 0 0 0 
551 1 30.2827 12.1712 6.12027 0 0 0 
910 1 30.1908 10.0508 8.2528 0 0 0 
949 1 28.1306 12.0699 8.18193 0 0 0 
516 1 32.2888 10.1145 6.00126 0 0 0 
555 1 34.3443 12.1499 5.89682 0 0 0 
914 1 34.421 10.0653 8.04551 0 0 0 
953 1 32.3348 12.0447 8.03523 0 0 0 
484 1 40.3915 10.0151 6.08042 -1 0 0 
921 1 40.4204 12.1614 8.07614 -1 0 0 
520 1 36.311 10.1549 5.99005 0 0 0 
559 1 38.4179 12.0965 6.14327 0 0 0 
918 1 38.3968 10.0815 8.07587 0 0 0 
957 1 36.3968 12.0172 8.22182 0 0 0 
528 1 4.02179 14.172 6.07112 0 0 0 
563 1 2.01963 16.2545 5.94409 0 0 0 
922 1 2.02047 14.1337 8.13366 0 0 0 
961 1 0.059108 16.1635 8.06174 0 0 0 
965 1 4.09582 16.1315 8.21461 0 0 0 
532 1 8.10125 14.1583 6.00522 0 0 0 
567 1 6.02672 16.0778 5.99895 0 0 0 
926 1 6.16016 14.1625 8.09661 0 0 0 
969 1 8.13985 16.1269 8.13627 0 0 0 
536 1 12.0981 14.1422 5.99459 0 0 0 
571 1 10.0627 16.1546 6.06118 0 0 0 
930 1 10.1551 14.1185 7.95867 0 0 0 
973 1 12.177 16.2097 8.14869 0 0 0 
540 1 16.1907 14.2 6.09219 0 0 0 
575 1 13.9898 16.1574 6.01438 0 0 0 
934 1 14.1338 14.2971 8.04568 0 0 0 
977 1 16.1819 16.2048 8.13167 0 0 0 
544 1 20.2343 14.2616 6.03685 0 0 0 
579 1 18.2241 16.0893 6.08301 0 0 0 
583 1 22.3167 16.2624 6.06519 0 0 0 
938 1 18.3089 14.1441 8.0532 0 0 0 
942 1 22.2329 14.2363 8.083 0 0 0 
981 1 20.3163 16.2073 8.15022 0 0 0 
548 1 24.2822 14.3063 6.10462 0 0 0 
587 1 26.4839 16.1953 6.07607 0 0 0 
946 1 26.2634 14.189 8.20582 0 0 0 
985 1 24.2756 16.3095 8.28832 0 0 0 
552 1 28.3801 14.0377 6.11804 0 0 0 
591 1 30.2146 16.0128 6.09362 0 0 0 
950 1 30.2764 13.9945 8.26187 0 0 0 
989 1 28.3716 16.0584 8.16368 0 0 0 
556 1 32.4978 14.1912 6.15251 0 0 0 
595 1 34.3882 16.2611 6.10376 0 0 0 
954 1 34.4383 14.0944 8.12763 0 0 0 
993 1 32.3976 16.1367 8.12764 0 0 0 
524 1 40.4227 14.118 6.00701 -1 0 0 
560 1 36.5336 14.2233 6.24351 0 0 0 
599 1 38.4696 16.1355 6.05018 0 0 0 
958 1 38.4856 14.13 8.12224 0 0 0 
997 1 36.552 16.0962 8.07042 0 0 0 
564 1 0.0543973 18.1579 6.11109 0 0 0 
568 1 3.96716 18.3052 6.10148 0 0 0 
603 1 2.0344 20.224 5.93742 0 0 0 
604 1 0.0886067 22.2349 6.04239 0 0 0 
608 1 4.05774 22.316 6.07776 0 0 0 
962 1 2.06599 18.2573 8.00996 0 0 0 
1001 1 0.12838 20.3096 7.99237 0 0 0 
1002 1 2.13533 22.3499 8.16342 0 0 0 
1005 1 4.13986 20.2462 8.02486 0 0 0 
572 1 8.09383 18.1531 6.0657 0 0 0 
607 1 6.06706 20.1276 6.06166 0 0 0 
612 1 8.11074 22.2458 6.01836 0 0 0 
966 1 6.14789 18.1161 8.09277 0 0 0 
1006 1 6.10429 22.2339 8.09688 0 0 0 
1009 1 8.20246 20.146 8.10311 0 0 0 
576 1 12.0891 18.1989 6.00265 0 0 0 
611 1 10.0671 20.21 6.04462 0 0 0 
616 1 12.179 22.2346 6.01441 0 0 0 
970 1 10.1929 18.1913 8.09958 0 0 0 
1010 1 10.0824 22.2251 8.01002 0 0 0 
1013 1 12.1108 20.236 8.02208 0 0 0 
580 1 16.2702 18.2179 6.05254 0 0 0 
615 1 14.126 20.0911 6.18529 0 0 0 
620 1 16.3271 22.2521 6.01199 0 0 0 
974 1 14.1112 18.2394 8.14838 0 0 0 
1014 1 14.1942 22.2268 8.03573 0 0 0 
1017 1 16.1447 20.2113 8.033 0 0 0 
584 1 20.2105 18.2788 5.97795 0 0 0 
619 1 18.2022 20.1884 5.95825 0 0 0 
623 1 22.2184 20.2277 6.14341 0 0 0 
624 1 20.1919 22.2308 6.01258 0 0 0 
978 1 18.2203 18.2459 8.04629 0 0 0 
982 1 22.3001 18.2455 8.14407 0 0 0 
1018 1 18.2134 22.2342 7.95649 0 0 0 
1021 1 20.2694 20.2742 8.08423 0 0 0 
1022 1 22.2575 22.2162 7.98998 0 0 0 
588 1 24.3071 18.1554 6.06552 0 0 0 
627 1 26.3367 20.2311 6.09857 0 0 0 
628 1 24.2563 22.1566 6.23642 0 0 0 
986 1 26.3579 18.1136 8.1233 0 0 0 
1025 1 24.3859 20.2684 8.19543 0 0 0 
1026 1 26.3204 22.2759 7.92858 0 0 0 
592 1 28.3781 18.1446 6.07979 0 0 0 
631 1 30.3929 20.2833 5.97218 0 0 0 
632 1 28.3208 22.2731 6.05432 0 0 0 
990 1 30.3755 18.2904 8.12385 0 0 0 
1029 1 28.3575 20.1734 8.02843 0 0 0 
1030 1 30.4239 22.368 8.08179 0 0 0 
596 1 32.3928 18.278 6.13004 0 0 0 
635 1 34.3735 20.2251 6.08635 0 0 0 
636 1 32.3805 22.3877 6.12431 0 0 0 
994 1 34.3733 18.2107 8.09877 0 0 0 
1033 1 32.366 20.1899 7.92364 0 0 0 
1034 1 34.4845 22.1497 8.10796 0 0 0 
600 1 36.4298 18.2087 6.02616 0 0 0 
639 1 38.6911 20.0485 5.98862 0 0 0 
640 1 36.4085 22.2393 6.12954 0 0 0 
998 1 38.6067 18.273 8.07891 0 0 0 
1037 1 36.4838 20.0795 8.02699 0 0 0 
1038 1 38.4417 22.1469 8.04328 0 0 0 
643 1 2.14628 24.3209 6.0654 0 0 0 
644 1 0.135395 26.2527 6.20863 0 0 0 
648 1 4.12596 26.3968 6.05477 0 0 0 
1041 1 0.0627745 24.2086 8.09209 0 0 0 
1042 1 2.13818 26.3448 8.1616 0 0 0 
1045 1 4.09016 24.3244 8.17326 0 0 0 
647 1 5.97381 24.3488 5.94504 0 0 0 
652 1 8.09224 26.3809 6.08652 0 0 0 
1046 1 6.05188 26.3405 8.0699 0 0 0 
1049 1 8.12143 24.1753 7.97915 0 0 0 
651 1 10.0511 24.3702 6.04174 0 0 0 
656 1 12.166 26.3112 6.09748 0 0 0 
1050 1 10.2201 26.4632 8.04354 0 0 0 
1053 1 12.1106 24.352 8.09232 0 0 0 
655 1 14.2861 24.2675 6.07814 0 0 0 
660 1 16.2019 26.2956 6.09434 0 0 0 
1054 1 14.1785 26.314 8.03377 0 0 0 
1057 1 16.1649 24.178 8.09574 0 0 0 
659 1 18.086 24.2628 5.99695 0 0 0 
663 1 22.2847 24.2322 6.02089 0 0 0 
664 1 20.3107 26.4566 6.08121 0 0 0 
1058 1 18.2455 26.2736 8.0581 0 0 0 
1061 1 20.2777 24.3255 8.11935 0 0 0 
1062 1 22.3396 26.2887 8.01823 0 0 0 
667 1 26.2817 24.4214 6.01169 0 0 0 
668 1 24.3676 26.3653 5.98937 0 0 0 
1065 1 24.2446 24.3691 8.01172 0 0 0 
1066 1 26.2402 26.3224 8.14093 0 0 0 
671 1 30.3058 24.2124 6.09421 0 0 0 
672 1 28.3344 26.275 6.12616 0 0 0 
1069 1 28.3584 24.265 8.09616 0 0 0 
1070 1 30.4196 26.3742 8.161 0 0 0 
675 1 34.4391 24.1707 6.09958 0 0 0 
676 1 32.4672 26.3086 6.18553 0 0 0 
1073 1 32.4375 24.3624 8.10899 0 0 0 
1074 1 34.406 26.3506 8.21675 0 0 0 
679 1 38.4877 24.3348 6.14495 0 0 0 
680 1 36.475 26.2764 6.22683 0 0 0 
1077 1 36.492 24.3082 8.16287 0 0 0 
1078 1 38.5389 26.4058 8.22571 0 0 0 
683 1 1.97513 28.4065 6.03305 0 0 0 
684 1 0.0707243 30.4178 6.05778 0 0 0 
688 1 4.11787 30.527 6.09452 0 0 0 
1081 1 0.0603609 28.3819 8.14497 0 0 0 
1082 1 1.97376 30.5396 7.99559 0 0 0 
1085 1 4.0944 28.3866 8.13619 0 0 0 
687 1 6.13114 28.4239 6.06849 0 0 0 
692 1 7.96575 30.3479 6.08564 0 0 0 
1086 1 5.99929 30.3993 8.20278 0 0 0 
1089 1 8.12486 28.3852 8.0726 0 0 0 
691 1 10.1234 28.3506 5.98548 0 0 0 
696 1 12.1219 30.3342 6.02727 0 0 0 
1090 1 10.0952 30.4905 8.05532 0 0 0 