ITEM: TIMESTEP
0
ITEM: NUMBER OF ATOMS
1685
ITEM: BOX BOUNDS pp pp pp
0 97.5
0 97.4279
0 150
ITEM: ATOMS id mol type x y z ix iy iz 
5 2 1 0 0 41.25 0 0 0 
15 4 4 3.75 6.49519 45 0 0 0 
23 6 4 7.5 12.9904 45 0 0 0 
141 32 1 7.5 0 41.25 0 0 0 
142 32 2 6.5 0 48.75 0 0 0 
151 34 4 11.25 6.49519 45 0 0 0 
160 36 4 15 12.9904 45 0 0 0 
280 62 1 15 0 41.25 0 0 0 
281 62 2 14 0 48.75 0 0 0 
1500 336 4 0 12.9904 45 1 0 0 
290 64 1 18.75 6.49519 41.25 0 0 0 
291 64 2 17.75 6.49519 48.75 0 0 0 
299 66 1 22.5 12.9904 41.25 0 0 0 
300 66 2 21.5 12.9904 48.75 0 0 0 
398 88 4 22.5 0 45 0 0 0 
406 90 4 26.25 6.49519 45 0 0 0 
415 92 1 30 12.9904 41.25 0 0 0 
416 92 2 29 12.9904 48.75 0 0 0 
505 112 4 30 0 45 0 0 0 
514 114 4 33.75 6.49519 45 0 0 0 
594 132 4 37.5 0 45 0 0 0 
602 134 4 41.25 6.49519 45 0 0 0 
611 136 1 45 12.9904 41.25 0 0 0 
612 136 2 44 12.9904 48.75 0 0 0 
705 156 4 45 0 45 0 0 0 
714 158 2 47.75 6.49519 48.75 0 0 0 
31 8 1 11.25 19.4856 41.25 0 0 0 
32 8 2 10.25 19.4856 48.75 0 0 0 
40 10 1 15 25.9808 41.25 0 0 0 
41 10 2 14 25.9808 48.75 0 0 0 
1384 310 4 0 25.9808 45 1 0 0 
1508 338 4 3.75 19.4856 45 1 0 0 
1517 340 1 7.5 25.9808 41.25 1 0 0 
1518 340 2 6.5 25.9808 48.75 1 0 0 
169 38 4 18.75 19.4856 45 0 0 0 
178 40 1 22.5 25.9808 41.25 0 0 0 
179 40 2 21.5 25.9808 48.75 0 0 0 
308 68 1 26.25 19.4856 41.25 0 0 0 
309 68 2 25.25 19.4856 48.75 0 0 0 
317 70 4 30 25.9808 45 0 0 0 
1613 361 6 42.8863 20.7558 45.3 0 0 0 
1614 361 6 39.775 23.867 48.6 0 0 0 
1273 284 4 0 38.9711 45 1 0 0 
1392 312 1 3.75 32.4759 41.25 1 0 0 
1393 312 2 2.75 32.4759 48.75 1 0 0 
1402 314 4 7.5 38.9711 45 1 0 0 
1526 342 1 11.25 32.4759 41.25 1 0 0 
1527 342 2 10.25 32.4759 48.75 1 0 0 
1536 344 4 15 38.9711 45 1 0 0 
50 12 4 18.75 32.4759 45 0 0 0 
59 14 4 22.5 38.9711 45 0 0 0 
188 42 1 26.25 32.4759 41.25 0 0 0 
189 42 2 25.25 32.4759 48.75 0 0 0 
198 44 4 30 38.9711 45 0 0 0 
424 94 4 45 38.9711 45 0 0 0 
1680 361 8 47.7567 32.0661 46.2549 0 0 0 
1156 258 1 0 51.9615 41.25 1 0 0 
1281 286 4 3.75 45.4663 45 1 0 0 
1290 288 1 7.5 51.9615 41.25 1 0 0 
1291 288 2 6.5 51.9615 48.75 1 0 0 
1410 316 4 11.25 45.4663 45 1 0 0 
1419 318 4 15 51.9615 45 1 0 0 
67 16 1 26.25 45.4663 41.25 0 0 0 
68 16 2 25.25 45.4663 48.75 0 0 0 
77 18 1 30 51.9615 41.25 0 0 0 
78 18 2 29 51.9615 48.75 0 0 0 
1545 346 1 18.75 45.4663 41.25 1 0 0 
1546 346 2 17.75 45.4663 48.75 1 0 0 
1554 348 1 22.5 51.9615 41.25 1 0 0 
1555 348 2 21.5 51.9615 48.75 1 0 0 
207 46 4 33.75 45.4663 45 0 0 0 
216 48 4 37.5 51.9615 45 0 0 0 
326 72 1 41.25 45.4663 41.25 0 0 0 
327 72 2 40.25 45.4663 48.75 0 0 0 
336 74 1 45 51.9615 41.25 0 0 0 
337 74 2 44 51.9615 48.75 0 0 0 
1040 232 1 0 64.9519 41.25 1 0 0 
1166 260 4 3.75 58.4567 45 1 0 0 
1175 262 1 7.5 64.9519 41.25 1 0 0 
1176 262 2 6.5 64.9519 48.75 1 0 0 
1299 290 4 11.25 58.4567 45 1 0 0 
1307 292 1 15 64.9519 41.25 1 0 0 
1308 292 2 14 64.9519 48.75 1 0 0 
1428 320 4 18.75 58.4567 45 1 0 0 
1437 322 4 22.5 64.9519 45 1 0 0 
1564 350 1 26.25 58.4567 41.25 1 0 0 
1565 350 2 25.25 58.4567 48.75 1 0 0 
1573 352 1 30 64.9519 41.25 1 0 0 
1574 352 2 29 64.9519 48.75 1 0 0 
87 20 1 33.75 58.4567 41.25 0 0 0 
88 20 2 32.75 58.4567 48.75 0 0 0 
96 22 1 37.5 64.9519 41.25 0 0 0 
97 22 2 36.5 64.9519 48.75 0 0 0 
224 50 4 41.25 58.4567 45 0 0 0 
233 52 1 45 64.9519 41.25 0 0 0 
234 52 2 44 64.9519 48.75 0 0 0 
927 206 4 0 77.9423 45 1 0 0 
1049 234 4 3.75 71.4471 45 1 0 0 
1057 236 4 7.5 77.9423 45 1 0 0 
1184 264 4 11.25 71.4471 45 1 0 0 
1192 266 4 15 77.9423 45 1 0 0 
1316 294 4 18.75 71.4471 45 1 0 0 
1324 296 4 22.5 77.9423 45 1 0 0 
1446 324 4 26.25 71.4471 45 1 0 0 
1455 326 4 30 77.9423 45 1 0 0 
105 24 1 41.25 71.4471 41.25 0 0 0 
106 24 2 40.25 71.4471 48.75 0 0 0 
114 26 1 45 77.9423 41.25 0 0 0 
115 26 2 44 77.9423 48.75 0 0 0 
244 54 2 47.75 71.4471 48.75 0 0 0 
1583 354 4 33.75 71.4471 45 1 0 0 
1591 356 4 37.5 77.9423 45 1 0 0 
811 180 1 0 90.9327 41.25 1 0 0 
935 208 4 3.75 84.4375 45 1 0 0 
944 210 4 7.5 90.9327 45 1 0 0 
1065 238 1 11.25 84.4375 41.25 1 0 0 
1066 238 2 10.25 84.4375 48.75 1 0 0 
1075 240 4 15 90.9327 45 1 0 0 
1201 268 4 18.75 84.4375 45 1 0 0 
1209 270 1 22.5 90.9327 41.25 1 0 0 
1210 270 2 21.5 90.9327 48.75 1 0 0 
1333 298 1 26.25 84.4375 41.25 1 0 0 
1334 298 2 25.25 84.4375 48.75 1 0 0 
1343 300 4 30 90.9327 45 1 0 0 
124 28 2 47.75 84.4375 48.75 0 0 0 
1463 328 1 33.75 84.4375 41.25 1 0 0 
1464 328 2 32.75 84.4375 48.75 1 0 0 
1472 330 1 37.5 90.9327 41.25 1 0 0 
1473 330 2 36.5 90.9327 48.75 1 0 0 
1599 358 1 41.25 84.4375 41.25 1 0 0 
1600 358 2 40.25 84.4375 48.75 1 0 0 
1608 360 1 45 90.9327 41.25 1 0 0 
1609 360 2 44 90.9327 48.75 1 0 0 
7 2 3 1 0 56.25 0 0 0 
16 4 2 2.75 6.49519 52.5 0 0 0 
17 4 3 4.75 6.49519 60 0 0 0 
24 6 2 6.5 12.9904 52.5 0 0 0 
25 6 3 8.5 12.9904 60 0 0 0 
143 32 3 8.5 0 56.25 0 0 0 
152 34 2 10.25 6.49519 52.5 0 0 0 
153 34 3 12.25 6.49519 60 0 0 0 
161 36 2 14 12.9904 52.5 0 0 0 
162 36 3 16 12.9904 60 0 0 0 
282 62 3 16 0 56.25 0 0 0 
1502 336 3 1 12.9904 60 1 0 0 
292 64 3 19.75 6.49519 56.25 0 0 0 
301 66 3 23.5 12.9904 56.25 0 0 0 
399 88 2 21.5 0 52.5 0 0 0 
400 88 3 23.5 0 60 0 0 0 
407 90 2 25.25 6.49519 52.5 0 0 0 
408 90 3 27.25 6.49519 60 0 0 0 
417 92 3 31 12.9904 56.25 0 0 0 
506 112 2 29 0 52.5 0 0 0 
507 112 3 31 0 60 0 0 0 
515 114 2 32.75 6.49519 52.5 0 0 0 
516 114 3 34.75 6.49519 60 0 0 0 
595 132 2 36.5 0 52.5 0 0 0 
596 132 3 38.5 0 60 0 0 0 
603 134 2 40.25 6.49519 52.5 0 0 0 
604 134 3 42.25 6.49519 60 0 0 0 
613 136 3 46 12.9904 56.25 0 0 0 
706 156 2 44 0 52.5 0 0 0 
707 156 3 46 0 60 0 0 0 
33 8 3 12.25 19.4856 56.25 0 0 0 
42 10 3 16 25.9808 56.25 0 0 0 
1386 310 3 1 25.9808 60 1 0 0 
1509 338 2 2.75 19.4856 52.5 1 0 0 
1510 338 3 4.75 19.4856 60 1 0 0 
1519 340 3 8.5 25.9808 56.25 1 0 0 
170 38 2 17.75 19.4856 52.5 0 0 0 
171 38 3 19.75 19.4856 60 0 0 0 
180 40 3 23.5 25.9808 56.25 0 0 0 
310 68 3 27.25 19.4856 56.25 0 0 0 
318 70 2 29 25.9808 52.5 0 0 0 
319 70 3 31 25.9808 60 0 0 0 
1615 361 7 36.6637 20.7558 51.9 0 0 0 
1616 361 7 39.775 17.6445 55.2 0 0 0 
1617 361 6 42.8863 20.7558 58.5 0 0 0 
1618 361 6 39.775 23.867 61.8 0 0 0 
1630 361 6 47.1137 20.7558 51.9 0 0 0 
1275 284 3 1 38.9711 60 1 0 0 
1394 312 3 4.75 32.4759 56.25 1 0 0 
1403 314 2 6.5 38.9711 52.5 1 0 0 
1404 314 3 8.5 38.9711 60 1 0 0 
1528 342 3 12.25 32.4759 56.25 1 0 0 
1537 344 2 14 38.9711 52.5 1 0 0 
1538 344 3 16 38.9711 60 1 0 0 
51 12 2 17.75 32.4759 52.5 0 0 0 
52 12 3 19.75 32.4759 60 0 0 0 
60 14 2 21.5 38.9711 52.5 0 0 0 
61 14 3 23.5 38.9711 60 0 0 0 
190 42 3 27.25 32.4759 56.25 0 0 0 
199 44 2 29 38.9711 52.5 0 0 0 
200 44 3 31 38.9711 60 0 0 0 
425 94 2 44 38.9711 52.5 0 0 0 
426 94 3 46 38.9711 60 0 0 0 
1645 361 6 47.1137 31.2058 51.9 0 0 0 
1661 361 6 39.775 28.0945 55.2 0 0 0 
1662 361 6 42.8863 31.2058 58.5 0 0 0 
1663 361 7 39.775 34.317 61.8 0 0 0 
1158 258 3 1 51.9615 56.25 1 0 0 
1282 286 2 2.75 45.4663 52.5 1 0 0 
1283 286 3 4.75 45.4663 60 1 0 0 
1292 288 3 8.5 51.9615 56.25 1 0 0 
1411 316 2 10.25 45.4663 52.5 1 0 0 
1412 316 3 12.25 45.4663 60 1 0 0 
1420 318 2 14 51.9615 52.5 1 0 0 
1421 318 3 16 51.9615 60 1 0 0 
69 16 3 27.25 45.4663 56.25 0 0 0 
79 18 3 31 51.9615 56.25 0 0 0 
1547 346 3 19.75 45.4663 56.25 1 0 0 
1556 348 3 23.5 51.9615 56.25 1 0 0 
208 46 2 32.75 45.4663 52.5 0 0 0 
209 46 3 34.75 45.4663 60 0 0 0 
217 48 2 36.5 51.9615 52.5 0 0 0 
218 48 3 38.5 51.9615 60 0 0 0 
328 72 3 42.25 45.4663 56.25 0 0 0 
338 74 3 46 51.9615 56.25 0 0 0 
434 96 2 47.75 45.4663 52.5 0 0 0 
1042 232 3 1 64.9519 56.25 1 0 0 
1167 260 2 2.75 58.4567 52.5 1 0 0 
1168 260 3 4.75 58.4567 60 1 0 0 
1177 262 3 8.5 64.9519 56.25 1 0 0 
1300 290 2 10.25 58.4567 52.5 1 0 0 
1301 290 3 12.25 58.4567 60 1 0 0 
1309 292 3 16 64.9519 56.25 1 0 0 
1429 320 2 17.75 58.4567 52.5 1 0 0 
1430 320 3 19.75 58.4567 60 1 0 0 
1438 322 2 21.5 64.9519 52.5 1 0 0 
1439 322 3 23.5 64.9519 60 1 0 0 
1566 350 3 27.25 58.4567 56.25 1 0 0 
1575 352 3 31 64.9519 56.25 1 0 0 
89 20 3 34.75 58.4567 56.25 0 0 0 
98 22 3 38.5 64.9519 56.25 0 0 0 
225 50 2 40.25 58.4567 52.5 0 0 0 
226 50 3 42.25 58.4567 60 0 0 0 
235 52 3 46 64.9519 56.25 0 0 0 
346 76 2 47.75 58.4567 52.5 0 0 0 
929 206 3 1 77.9423 60 1 0 0 
1050 234 2 2.75 71.4471 52.5 1 0 0 
1051 234 3 4.75 71.4471 60 1 0 0 
1058 236 2 6.5 77.9423 52.5 1 0 0 
1059 236 3 8.5 77.9423 60 1 0 0 
1185 264 2 10.25 71.4471 52.5 1 0 0 
1186 264 3 12.25 71.4471 60 1 0 0 
1193 266 2 14 77.9423 52.5 1 0 0 
1194 266 3 16 77.9423 60 1 0 0 
1317 294 2 17.75 71.4471 52.5 1 0 0 
1318 294 3 19.75 71.4471 60 1 0 0 
1325 296 2 21.5 77.9423 52.5 1 0 0 
1326 296 3 23.5 77.9423 60 1 0 0 
1447 324 2 25.25 71.4471 52.5 1 0 0 
1448 324 3 27.25 71.4471 60 1 0 0 
1456 326 2 29 77.9423 52.5 1 0 0 
1457 326 3 31 77.9423 60 1 0 0 
107 24 3 42.25 71.4471 56.25 0 0 0 
116 26 3 46 77.9423 56.25 0 0 0 
1584 354 2 32.75 71.4471 52.5 1 0 0 
1585 354 3 34.75 71.4471 60 1 0 0 
1592 356 2 36.5 77.9423 52.5 1 0 0 
1593 356 3 38.5 77.9423 60 1 0 0 
813 180 3 1 90.9327 56.25 1 0 0 
936 208 2 2.75 84.4375 52.5 1 0 0 
937 208 3 4.75 84.4375 60 1 0 0 
945 210 2 6.5 90.9327 52.5 1 0 0 
946 210 3 8.5 90.9327 60 1 0 0 
1067 238 3 12.25 84.4375 56.25 1 0 0 
1076 240 2 14 90.9327 52.5 1 0 0 
1077 240 3 16 90.9327 60 1 0 0 
1202 268 2 17.75 84.4375 52.5 1 0 0 
1203 268 3 19.75 84.4375 60 1 0 0 
1211 270 3 23.5 90.9327 56.25 1 0 0 
1335 298 3 27.25 84.4375 56.25 1 0 0 
1344 300 2 29 90.9327 52.5 1 0 0 
1345 300 3 31 90.9327 60 1 0 0 
1465 328 3 34.75 84.4375 56.25 1 0 0 
1474 330 3 38.5 90.9327 56.25 1 0 0 
1601 358 3 42.25 84.4375 56.25 1 0 0 
1610 360 3 46 90.9327 56.25 1 0 0 
9 2 3 1 0 71.25 0 0 0 
18 4 3 2.75 6.49519 67.5 0 0 0 
26 6 3 6.5 12.9904 67.5 0 0 0 
144 32 3 6.5 0 63.75 0 0 0 
145 32 3 8.5 0 71.25 0 0 0 
154 34 3 10.25 6.49519 67.5 0 0 0 
163 36 3 14 12.9904 67.5 0 0 0 
283 62 3 14 0 63.75 0 0 0 
284 62 3 16 0 71.25 0 0 0 
293 64 3 17.75 6.49519 63.75 0 0 0 
294 64 3 19.75 6.49519 71.25 0 0 0 
302 66 3 21.5 12.9904 63.75 0 0 0 
303 66 3 23.5 12.9904 71.25 0 0 0 
401 88 3 21.5 0 67.5 0 0 0 
409 90 3 25.25 6.49519 67.5 0 0 0 
418 92 3 29 12.9904 63.75 0 0 0 
419 92 3 31 12.9904 71.25 0 0 0 
508 112 3 29 0 67.5 0 0 0 
517 114 3 32.75 6.49519 67.5 0 0 0 
597 132 3 36.5 0 67.5 0 0 0 
605 134 3 40.25 6.49519 67.5 0 0 0 
614 136 3 44 12.9904 63.75 0 0 0 
615 136 3 46 12.9904 71.25 0 0 0 
708 156 3 44 0 67.5 0 0 0 
716 158 3 47.75 6.49519 63.75 0 0 0 
34 8 3 10.25 19.4856 63.75 0 0 0 
35 8 3 12.25 19.4856 71.25 0 0 0 
43 10 3 14 25.9808 63.75 0 0 0 
44 10 3 16 25.9808 71.25 0 0 0 
1511 338 3 2.75 19.4856 67.5 1 0 0 
1520 340 3 6.5 25.9808 63.75 1 0 0 
1521 340 3 8.5 25.9808 71.25 1 0 0 
172 38 3 17.75 19.4856 67.5 0 0 0 
181 40 3 21.5 25.9808 63.75 0 0 0 
182 40 3 23.5 25.9808 71.25 0 0 0 
311 68 3 25.25 19.4856 63.75 0 0 0 
312 68 3 27.25 19.4856 71.25 0 0 0 
320 70 3 29 25.9808 67.5 0 0 0 
1619 361 7 36.6637 20.7558 65.1 0 0 0 
1620 361 7 39.775 17.6445 68.4 0 0 0 
1621 361 6 42.8863 20.7558 71.7 0 0 0 
1634 361 6 47.1137 20.7558 65.1 0 0 0 
1395 312 3 2.75 32.4759 63.75 1 0 0 
1396 312 3 4.75 32.4759 71.25 1 0 0 
1405 314 3 6.5 38.9711 67.5 1 0 0 
1529 342 3 10.25 32.4759 63.75 1 0 0 
1530 342 3 12.25 32.4759 71.25 1 0 0 
1539 344 3 14 38.9711 67.5 1 0 0 
53 12 3 17.75 32.4759 67.5 0 0 0 
62 14 3 21.5 38.9711 67.5 0 0 0 
191 42 3 25.25 32.4759 63.75 0 0 0 
192 42 3 27.25 32.4759 71.25 0 0 0 
201 44 3 29 38.9711 67.5 0 0 0 
427 94 3 44 38.9711 67.5 0 0 0 
1649 361 6 47.1137 31.2058 65.1 0 0 0 
1664 361 7 36.6637 31.2058 65.1 0 0 0 
1665 361 6 39.775 28.0945 68.4 0 0 0 
1666 361 6 42.8863 31.2058 71.7 0 0 0 
1160 258 3 1 51.9615 71.25 1 0 0 
1284 286 3 2.75 45.4663 67.5 1 0 0 
1293 288 3 6.5 51.9615 63.75 1 0 0 
1294 288 3 8.5 51.9615 71.25 1 0 0 
1413 316 3 10.25 45.4663 67.5 1 0 0 
1422 318 3 14 51.9615 67.5 1 0 0 
70 16 3 25.25 45.4663 63.75 0 0 0 
71 16 3 27.25 45.4663 71.25 0 0 0 
80 18 3 29 51.9615 63.75 0 0 0 
81 18 3 31 51.9615 71.25 0 0 0 
1548 346 3 17.75 45.4663 63.75 1 0 0 
1549 346 3 19.75 45.4663 71.25 1 0 0 
1557 348 3 21.5 51.9615 63.75 1 0 0 
1558 348 3 23.5 51.9615 71.25 1 0 0 
210 46 3 32.75 45.4663 67.5 0 0 0 
219 48 3 36.5 51.9615 67.5 0 0 0 
329 72 3 40.25 45.4663 63.75 0 0 0 
330 72 3 42.25 45.4663 71.25 0 0 0 
339 74 3 44 51.9615 63.75 0 0 0 
340 74 3 46 51.9615 71.25 0 0 0 
436 96 3 47.75 45.4663 67.5 0 0 0 
1044 232 3 1 64.9519 71.25 1 0 0 
1169 260 3 2.75 58.4567 67.5 1 0 0 
1178 262 3 6.5 64.9519 63.75 1 0 0 
1179 262 3 8.5 64.9519 71.25 1 0 0 
1302 290 3 10.25 58.4567 67.5 1 0 0 
1310 292 3 14 64.9519 63.75 1 0 0 
1311 292 3 16 64.9519 71.25 1 0 0 
1431 320 3 17.75 58.4567 67.5 1 0 0 
1440 322 3 21.5 64.9519 67.5 1 0 0 
1567 350 3 25.25 58.4567 63.75 1 0 0 
1568 350 3 27.25 58.4567 71.25 1 0 0 
1576 352 3 29 64.9519 63.75 1 0 0 
1577 352 3 31 64.9519 71.25 1 0 0 
90 20 3 32.75 58.4567 63.75 0 0 0 
91 20 3 34.75 58.4567 71.25 0 0 0 
99 22 3 36.5 64.9519 63.75 0 0 0 
100 22 3 38.5 64.9519 71.25 0 0 0 
227 50 3 40.25 58.4567 67.5 0 0 0 
236 52 3 44 64.9519 63.75 0 0 0 
237 52 3 46 64.9519 71.25 0 0 0 
348 76 3 47.75 58.4567 67.5 0 0 0 
1052 234 3 2.75 71.4471 67.5 1 0 0 
1060 236 3 6.5 77.9423 67.5 1 0 0 
1187 264 3 10.25 71.4471 67.5 1 0 0 
1195 266 3 14 77.9423 67.5 1 0 0 
1319 294 3 17.75 71.4471 67.5 1 0 0 
1327 296 3 21.5 77.9423 67.5 1 0 0 
1449 324 3 25.25 71.4471 67.5 1 0 0 
1458 326 3 29 77.9423 67.5 1 0 0 
108 24 3 40.25 71.4471 63.75 0 0 0 
109 24 3 42.25 71.4471 71.25 0 0 0 
117 26 3 44 77.9423 63.75 0 0 0 
118 26 3 46 77.9423 71.25 0 0 0 
246 54 3 47.75 71.4471 63.75 0 0 0 
1586 354 3 32.75 71.4471 67.5 1 0 0 
1594 356 3 36.5 77.9423 67.5 1 0 0 
815 180 3 1 90.9327 71.25 1 0 0 
938 208 3 2.75 84.4375 67.5 1 0 0 
947 210 3 6.5 90.9327 67.5 1 0 0 
1068 238 3 10.25 84.4375 63.75 1 0 0 
1069 238 3 12.25 84.4375 71.25 1 0 0 
1078 240 3 14 90.9327 67.5 1 0 0 
1204 268 3 17.75 84.4375 67.5 1 0 0 
1212 270 3 21.5 90.9327 63.75 1 0 0 
1213 270 3 23.5 90.9327 71.25 1 0 0 
1336 298 3 25.25 84.4375 63.75 1 0 0 
1337 298 3 27.25 84.4375 71.25 1 0 0 
1346 300 3 29 90.9327 67.5 1 0 0 
126 28 3 47.75 84.4375 63.75 0 0 0 
1466 328 3 32.75 84.4375 63.75 1 0 0 
1467 328 3 34.75 84.4375 71.25 1 0 0 
1475 330 3 36.5 90.9327 63.75 1 0 0 
1476 330 3 38.5 90.9327 71.25 1 0 0 
1602 358 3 40.25 84.4375 63.75 1 0 0 
1603 358 3 42.25 84.4375 71.25 1 0 0 
1611 360 3 44 90.9327 63.75 1 0 0 
1612 360 3 46 90.9327 71.25 1 0 0 
13 3 3 2.75 6.49519 86.25 0 0 0 
14 3 3 4.75 6.49519 78.75 0 0 0 
22 5 3 6.5 12.9904 82.5 0 0 0 
139 31 3 6.5 0 86.25 0 0 0 
140 31 3 8.5 0 78.75 0 0 0 
149 33 3 10.25 6.49519 86.25 0 0 0 
150 33 3 12.25 6.49519 78.75 0 0 0 
158 35 3 14 12.9904 86.25 0 0 0 
159 35 3 16 12.9904 78.75 0 0 0 
278 61 3 14 0 86.25 0 0 0 
279 61 3 16 0 78.75 0 0 0 
1499 335 3 1 12.9904 78.75 1 0 0 
288 63 3 17.75 6.49519 86.25 0 0 0 
289 63 3 19.75 6.49519 78.75 0 0 0 
298 65 3 21.5 12.9904 82.5 0 0 0 
396 87 3 21.5 0 86.25 0 0 0 
397 87 3 23.5 0 78.75 0 0 0 
405 89 3 25.25 6.49519 82.5 0 0 0 
413 91 3 29 12.9904 86.25 0 0 0 
414 91 3 31 12.9904 78.75 0 0 0 
503 111 3 29 0 86.25 0 0 0 
504 111 3 31 0 78.75 0 0 0 
512 113 3 32.75 6.49519 86.25 0 0 0 
513 113 3 34.75 6.49519 78.75 0 0 0 
592 131 3 36.5 0 86.25 0 0 0 
593 131 3 38.5 0 78.75 0 0 0 
601 133 3 40.25 6.49519 82.5 0 0 0 
609 135 3 44 12.9904 86.25 0 0 0 
610 135 3 46 12.9904 78.75 0 0 0 
703 155 3 44 0 86.25 0 0 0 
704 155 3 46 0 78.75 0 0 0 
712 157 3 47.75 6.49519 82.5 0 0 0 
30 7 3 10.25 19.4856 82.5 0 0 0 
39 9 3 14 25.9808 82.5 0 0 0 
1507 337 3 2.75 19.4856 82.5 1 0 0 
1515 339 3 6.5 25.9808 86.25 1 0 0 
1516 339 3 8.5 25.9808 78.75 1 0 0 
167 37 3 17.75 19.4856 86.25 0 0 0 
168 37 3 19.75 19.4856 78.75 0 0 0 
176 39 3 21.5 25.9808 86.25 0 0 0 
177 39 3 23.5 25.9808 78.75 0 0 0 
307 67 3 25.25 19.4856 82.5 0 0 0 
316 69 3 29 25.9808 82.5 0 0 0 
1622 361 6 39.775 23.867 75 0 0 0 
1623 361 7 36.6637 20.7558 78.3 0 0 0 
1624 361 7 39.775 17.6445 81.6 0 0 0 
1625 361 6 42.8863 20.7558 84.9 0 0 0 
1638 361 6 47.1137 20.7558 78.3 0 0 0 
1391 311 3 2.75 32.4759 82.5 1 0 0 
1400 313 3 6.5 38.9711 86.25 1 0 0 
1401 313 3 8.5 38.9711 78.75 1 0 0 
1525 341 3 10.25 32.4759 82.5 1 0 0 
1534 343 3 14 38.9711 86.25 1 0 0 
1535 343 3 16 38.9711 78.75 1 0 0 
48 11 3 17.75 32.4759 86.25 0 0 0 
49 11 3 19.75 32.4759 78.75 0 0 0 
57 13 3 21.5 38.9711 86.25 0 0 0 
58 13 3 23.5 38.9711 78.75 0 0 0 
186 41 3 25.25 32.4759 86.25 0 0 0 
187 41 3 27.25 32.4759 78.75 0 0 0 
196 43 3 29 38.9711 86.25 0 0 0 
197 43 3 31 38.9711 78.75 0 0 0 
423 93 3 44 38.9711 82.5 0 0 0 
1653 361 6 47.1137 31.2058 78.3 0 0 0 
1667 361 7 39.775 34.317 75 0 0 0 
1668 361 7 36.6637 31.2058 78.3 0 0 0 
1669 361 6 39.775 28.0945 81.6 0 0 0 
1670 361 6 42.8863 31.2058 84.9 0 0 0 
1155 257 3 1 51.9615 78.75 1 0 0 
1280 285 3 2.75 45.4663 82.5 1 0 0 
1288 287 3 6.5 51.9615 86.25 1 0 0 
1289 287 3 8.5 51.9615 78.75 1 0 0 
1409 315 3 10.25 45.4663 82.5 1 0 0 
1417 317 3 14 51.9615 86.25 1 0 0 
1418 317 3 16 51.9615 78.75 1 0 0 
66 15 3 25.25 45.4663 82.5 0 0 0 
75 17 3 29 51.9615 86.25 0 0 0 
76 17 3 31 51.9615 78.75 0 0 0 
1543 345 3 17.75 45.4663 86.25 1 0 0 
1544 345 3 19.75 45.4663 78.75 1 0 0 
1553 347 3 21.5 51.9615 82.5 1 0 0 
205 45 3 32.75 45.4663 86.25 0 0 0 
206 45 3 34.75 45.4663 78.75 0 0 0 
214 47 3 36.5 51.9615 86.25 0 0 0 
215 47 3 38.5 51.9615 78.75 0 0 0 
324 71 3 40.25 45.4663 86.25 0 0 0 
325 71 3 42.25 45.4663 78.75 0 0 0 
334 73 3 44 51.9615 86.25 0 0 0 
335 73 3 46 51.9615 78.75 0 0 0 
431 95 3 47.75 45.4663 86.25 0 0 0 
1039 231 3 1 64.9519 78.75 1 0 0 
1164 259 3 2.75 58.4567 86.25 1 0 0 
1165 259 3 4.75 58.4567 78.75 1 0 0 
1173 261 3 6.5 64.9519 86.25 1 0 0 
1174 261 3 8.5 64.9519 78.75 1 0 0 
1298 289 3 10.25 58.4567 82.5 1 0 0 
1306 291 3 14 64.9519 82.5 1 0 0 
1426 319 3 17.75 58.4567 86.25 1 0 0 
1427 319 3 19.75 58.4567 78.75 1 0 0 
1435 321 3 21.5 64.9519 86.25 1 0 0 
1436 321 3 23.5 64.9519 78.75 1 0 0 
1562 349 3 25.25 58.4567 86.25 1 0 0 
1563 349 3 27.25 58.4567 78.75 1 0 0 
1572 351 3 29 64.9519 82.5 1 0 0 
85 19 3 32.75 58.4567 86.25 0 0 0 
86 19 3 34.75 58.4567 78.75 0 0 0 
95 21 3 36.5 64.9519 82.5 0 0 0 
223 49 3 40.25 58.4567 82.5 0 0 0 
231 51 3 44 64.9519 86.25 0 0 0 
232 51 3 46 64.9519 78.75 0 0 0 
344 75 3 47.75 58.4567 82.5 0 0 0 
1048 233 3 2.75 71.4471 82.5 1 0 0 
1056 235 3 6.5 77.9423 82.5 1 0 0 
1183 263 3 10.25 71.4471 82.5 1 0 0 
1191 265 3 14 77.9423 82.5 1 0 0 
1315 293 3 17.75 71.4471 82.5 1 0 0 
1323 295 3 21.5 77.9423 82.5 1 0 0 
1444 323 3 25.25 71.4471 86.25 1 0 0 
1445 323 3 27.25 71.4471 78.75 1 0 0 
1453 325 3 29 77.9423 86.25 1 0 0 
1454 325 3 31 77.9423 78.75 1 0 0 
104 23 3 40.25 71.4471 82.5 0 0 0 
113 25 3 44 77.9423 82.5 0 0 0 
241 53 3 47.75 71.4471 86.25 0 0 0 
1581 353 3 32.75 71.4471 86.25 1 0 0 
1582 353 3 34.75 71.4471 78.75 1 0 0 
1590 355 3 36.5 77.9423 82.5 1 0 0 
934 207 3 2.75 84.4375 82.5 1 0 0 
942 209 3 6.5 90.9327 86.25 1 0 0 
943 209 3 8.5 90.9327 78.75 1 0 0 
1064 237 3 10.25 84.4375 82.5 1 0 0 
1073 239 3 14 90.9327 86.25 1 0 0 
1074 239 3 16 90.9327 78.75 1 0 0 
1199 267 3 17.75 84.4375 86.25 1 0 0 
1200 267 3 19.75 84.4375 78.75 1 0 0 
1208 269 3 21.5 90.9327 82.5 1 0 0 
1331 297 3 25.25 84.4375 86.25 1 0 0 
1332 297 3 27.25 84.4375 78.75 1 0 0 
1341 299 3 29 90.9327 86.25 1 0 0 
1342 299 3 31 90.9327 78.75 1 0 0 
122 27 3 47.75 84.4375 82.5 0 0 0 
1462 327 3 32.75 84.4375 82.5 1 0 0 
1471 329 3 36.5 90.9327 82.5 1 0 0 
1598 357 3 40.25 84.4375 82.5 1 0 0 
1607 359 3 44 90.9327 82.5 1 0 0 
3 1 3 1 0 90 0 0 0 
12 3 3 4.75 6.49519 93.75 0 0 0 
20 5 2 6.5 12.9904 97.5 0 0 0 
21 5 3 8.5 12.9904 90 0 0 0 
138 31 3 8.5 0 93.75 0 0 0 
148 33 3 12.25 6.49519 93.75 0 0 0 
157 35 3 16 12.9904 93.75 0 0 0 
277 61 3 16 0 93.75 0 0 0 
1497 335 3 1 12.9904 93.75 1 0 0 
287 63 3 19.75 6.49519 93.75 0 0 0 
296 65 2 21.5 12.9904 97.5 0 0 0 
297 65 3 23.5 12.9904 90 0 0 0 
395 87 3 23.5 0 93.75 0 0 0 
403 89 2 25.25 6.49519 97.5 0 0 0 
404 89 3 27.25 6.49519 90 0 0 0 
412 91 3 31 12.9904 93.75 0 0 0 
502 111 3 31 0 93.75 0 0 0 
511 113 3 34.75 6.49519 93.75 0 0 0 
591 131 3 38.5 0 93.75 0 0 0 
599 133 2 40.25 6.49519 97.5 0 0 0 
600 133 3 42.25 6.49519 90 0 0 0 
608 135 3 46 12.9904 93.75 0 0 0 
702 155 3 46 0 93.75 0 0 0 
710 157 2 47.75 6.49519 97.5 0 0 0 
28 7 2 10.25 19.4856 97.5 0 0 0 
29 7 3 12.25 19.4856 90 0 0 0 
37 9 2 14 25.9808 97.5 0 0 0 
38 9 3 16 25.9808 90 0 0 0 
1382 309 3 1 25.9808 90 1 0 0 
1505 337 2 2.75 19.4856 97.5 1 0 0 
1506 337 3 4.75 19.4856 90 1 0 0 
1514 339 3 8.5 25.9808 93.75 1 0 0 
166 37 3 19.75 19.4856 93.75 0 0 0 
175 39 3 23.5 25.9808 93.75 0 0 0 
305 67 2 25.25 19.4856 97.5 0 0 0 
306 67 3 27.25 19.4856 90 0 0 0 
314 69 2 29 25.9808 97.5 0 0 0 
315 69 3 31 25.9808 90 0 0 0 
1626 361 6 39.775 23.867 88.2 0 0 0 
1627 361 7 36.6637 20.7558 91.5 0 0 0 
1628 361 7 39.775 17.6445 94.8 0 0 0 
1642 361 6 47.1137 20.7558 91.5 0 0 0 
1677 361 8 41.6432 21.4128 99.0701 0 0 0 
1271 283 3 1 38.9711 90 1 0 0 
1389 311 2 2.75 32.4759 97.5 1 0 0 
1390 311 3 4.75 32.4759 90 1 0 0 
1399 313 3 8.5 38.9711 93.75 1 0 0 
1523 341 2 10.25 32.4759 97.5 1 0 0 
1524 341 3 12.25 32.4759 90 1 0 0 
1533 343 3 16 38.9711 93.75 1 0 0 
47 11 3 19.75 32.4759 93.75 0 0 0 
56 13 3 23.5 38.9711 93.75 0 0 0 
185 41 3 27.25 32.4759 93.75 0 0 0 
195 43 3 31 38.9711 93.75 0 0 0 
421 93 2 44 38.9711 97.5 0 0 0 
422 93 3 46 38.9711 90 0 0 0 
1657 361 6 47.1137 31.2058 91.5 0 0 0 
1671 361 7 39.775 34.317 88.2 0 0 0 
1672 361 7 36.6637 31.2058 91.5 0 0 0 
1673 361 6 39.775 28.0945 94.8 0 0 0 
1674 361 6 42.8863 31.2058 98.1 0 0 0 
1153 257 3 1 51.9615 93.75 1 0 0 
1278 285 2 2.75 45.4663 97.5 1 0 0 
1279 285 3 4.75 45.4663 90 1 0 0 
1287 287 3 8.5 51.9615 93.75 1 0 0 
1407 315 2 10.25 45.4663 97.5 1 0 0 
1408 315 3 12.25 45.4663 90 1 0 0 
1416 317 3 16 51.9615 93.75 1 0 0 
64 15 2 25.25 45.4663 97.5 0 0 0 
65 15 3 27.25 45.4663 90 0 0 0 
74 17 3 31 51.9615 93.75 0 0 0 
1542 345 3 19.75 45.4663 93.75 1 0 0 
1551 347 2 21.5 51.9615 97.5 1 0 0 
1552 347 3 23.5 51.9615 90 1 0 0 
204 45 3 34.75 45.4663 93.75 0 0 0 
213 47 3 38.5 51.9615 93.75 0 0 0 
323 71 3 42.25 45.4663 93.75 0 0 0 
333 73 3 46 51.9615 93.75 0 0 0 
1037 231 3 1 64.9519 93.75 1 0 0 
1163 259 3 4.75 58.4567 93.75 1 0 0 
1172 261 3 8.5 64.9519 93.75 1 0 0 
1296 289 2 10.25 58.4567 97.5 1 0 0 
1297 289 3 12.25 58.4567 90 1 0 0 
1304 291 2 14 64.9519 97.5 1 0 0 
1305 291 3 16 64.9519 90 1 0 0 
1425 319 3 19.75 58.4567 93.75 1 0 0 
1434 321 3 23.5 64.9519 93.75 1 0 0 
1561 349 3 27.25 58.4567 93.75 1 0 0 
1570 351 2 29 64.9519 97.5 1 0 0 
1571 351 3 31 64.9519 90 1 0 0 
84 19 3 34.75 58.4567 93.75 0 0 0 
93 21 2 36.5 64.9519 97.5 0 0 0 
94 21 3 38.5 64.9519 90 0 0 0 
221 49 2 40.25 58.4567 97.5 0 0 0 
222 49 3 42.25 58.4567 90 0 0 0 
230 51 3 46 64.9519 93.75 0 0 0 
342 75 2 47.75 58.4567 97.5 0 0 0 
925 205 3 1 77.9423 90 1 0 0 
1046 233 2 2.75 71.4471 97.5 1 0 0 
1047 233 3 4.75 71.4471 90 1 0 0 
1054 235 2 6.5 77.9423 97.5 1 0 0 
1055 235 3 8.5 77.9423 90 1 0 0 
1181 263 2 10.25 71.4471 97.5 1 0 0 
1182 263 3 12.25 71.4471 90 1 0 0 
1189 265 2 14 77.9423 97.5 1 0 0 
1190 265 3 16 77.9423 90 1 0 0 
1313 293 2 17.75 71.4471 97.5 1 0 0 
1314 293 3 19.75 71.4471 90 1 0 0 
1321 295 2 21.5 77.9423 97.5 1 0 0 
1322 295 3 23.5 77.9423 90 1 0 0 
1443 323 3 27.25 71.4471 93.75 1 0 0 
1452 325 3 31 77.9423 93.75 1 0 0 
102 23 2 40.25 71.4471 97.5 0 0 0 
103 23 3 42.25 71.4471 90 0 0 0 
111 25 2 44 77.9423 97.5 0 0 0 
112 25 3 46 77.9423 90 0 0 0 
1580 353 3 34.75 71.4471 93.75 1 0 0 
1588 355 2 36.5 77.9423 97.5 1 0 0 
1589 355 3 38.5 77.9423 90 1 0 0 
809 179 3 1 90.9327 90 1 0 0 
932 207 2 2.75 84.4375 97.5 1 0 0 
933 207 3 4.75 84.4375 90 1 0 0 
941 209 3 8.5 90.9327 93.75 1 0 0 
1062 237 2 10.25 84.4375 97.5 1 0 0 
1063 237 3 12.25 84.4375 90 1 0 0 
1072 239 3 16 90.9327 93.75 1 0 0 
1198 267 3 19.75 84.4375 93.75 1 0 0 
1206 269 2 21.5 90.9327 97.5 1 0 0 
1207 269 3 23.5 90.9327 90 1 0 0 
1330 297 3 27.25 84.4375 93.75 1 0 0 
1340 299 3 31 90.9327 93.75 1 0 0 
120 27 2 47.75 84.4375 97.5 0 0 0 
1460 327 2 32.75 84.4375 97.5 1 0 0 
1461 327 3 34.75 84.4375 90 1 0 0 
1469 329 2 36.5 90.9327 97.5 1 0 0 
1470 329 3 38.5 90.9327 90 1 0 0 
1596 357 2 40.25 84.4375 97.5 1 0 0 
1597 357 3 42.25 84.4375 90 1 0 0 
1605 359 2 44 90.9327 97.5 1 0 0 
1606 359 3 46 90.9327 90 1 0 0 
1 1 4 0 0 105 0 0 0 
10 3 1 3.75 6.49519 108.75 0 0 0 
11 3 2 2.75 6.49519 101.25 0 0 0 
19 5 4 7.5 12.9904 105 0 0 0 
136 31 1 7.5 0 108.75 0 0 0 
137 31 2 6.5 0 101.25 0 0 0 
146 33 1 11.25 6.49519 108.75 0 0 0 
147 33 2 10.25 6.49519 101.25 0 0 0 
155 35 1 15 12.9904 108.75 0 0 0 
156 35 2 14 12.9904 101.25 0 0 0 
275 61 1 15 0 108.75 0 0 0 
276 61 2 14 0 101.25 0 0 0 
1495 335 1 0 12.9904 108.75 1 0 0 
285 63 1 18.75 6.49519 108.75 0 0 0 
286 63 2 17.75 6.49519 101.25 0 0 0 
295 65 4 22.5 12.9904 105 0 0 0 
393 87 1 22.5 0 108.75 0 0 0 
394 87 2 21.5 0 101.25 0 0 0 
402 89 4 26.25 6.49519 105 0 0 0 
410 91 1 30 12.9904 108.75 0 0 0 
411 91 2 29 12.9904 101.25 0 0 0 
500 111 1 30 0 108.75 0 0 0 
501 111 2 29 0 101.25 0 0 0 
509 113 1 33.75 6.49519 108.75 0 0 0 
510 113 2 32.75 6.49519 101.25 0 0 0 
589 131 1 37.5 0 108.75 0 0 0 
590 131 2 36.5 0 101.25 0 0 0 
598 133 4 41.25 6.49519 105 0 0 0 
606 135 1 45 12.9904 108.75 0 0 0 
607 135 2 44 12.9904 101.25 0 0 0 
700 155 1 45 0 108.75 0 0 0 
701 155 2 44 0 101.25 0 0 0 
27 7 4 11.25 19.4856 105 0 0 0 
36 9 4 15 25.9808 105 0 0 0 
1380 309 4 0 25.9808 105 1 0 0 
1504 337 4 3.75 19.4856 105 1 0 0 
1512 339 1 7.5 25.9808 108.75 1 0 0 
1513 339 2 6.5 25.9808 101.25 1 0 0 
164 37 1 18.75 19.4856 108.75 0 0 0 
165 37 2 17.75 19.4856 101.25 0 0 0 
173 39 1 22.5 25.9808 108.75 0 0 0 
174 39 2 21.5 25.9808 101.25 0 0 0 
304 67 4 26.25 19.4856 105 0 0 0 
313 69 4 30 25.9808 105 0 0 0 
1678 361 8 45.7957 19.0733 101.815 0 0 0 
1269 283 4 0 38.9711 105 1 0 0 
1388 311 4 3.75 32.4759 105 1 0 0 
1397 313 1 7.5 38.9711 108.75 1 0 0 
1398 313 2 6.5 38.9711 101.25 1 0 0 
1522 341 4 11.25 32.4759 105 1 0 0 
1531 343 1 15 38.9711 108.75 1 0 0 
1532 343 2 14 38.9711 101.25 1 0 0 
45 11 1 18.75 32.4759 108.75 0 0 0 
46 11 2 17.75 32.4759 101.25 0 0 0 
54 13 1 22.5 38.9711 108.75 0 0 0 
55 13 2 21.5 38.9711 101.25 0 0 0 
183 41 1 26.25 32.4759 108.75 0 0 0 
184 41 2 25.25 32.4759 101.25 0 0 0 
193 43 1 30 38.9711 108.75 0 0 0 
194 43 2 29 38.9711 101.25 0 0 0 
420 93 4 45 38.9711 105 0 0 0 
1675 361 7 39.775 34.317 101.4 0 0 0 
1676 361 7 36.6637 31.2058 104.7 0 0 0 
1683 361 8 48.3568 30.5487 104.845 0 0 0 
1684 361 8 44.2043 32.8882 107.59 0 0 0 
1685 361 8 40.2132 29.1128 107.855 0 0 0 
1151 257 1 0 51.9615 108.75 1 0 0 
1277 285 4 3.75 45.4663 105 1 0 0 
1285 287 1 7.5 51.9615 108.75 1 0 0 
1286 287 2 6.5 51.9615 101.25 1 0 0 
1406 315 4 11.25 45.4663 105 1 0 0 
1414 317 1 15 51.9615 108.75 1 0 0 
1415 317 2 14 51.9615 101.25 1 0 0 
63 15 4 26.25 45.4663 105 0 0 0 
72 17 1 30 51.9615 108.75 0 0 0 
73 17 2 29 51.9615 101.25 0 0 0 
1540 345 1 18.75 45.4663 108.75 1 0 0 
1541 345 2 17.75 45.4663 101.25 1 0 0 
1550 347 4 22.5 51.9615 105 1 0 0 
202 45 1 33.75 45.4663 108.75 0 0 0 
203 45 2 32.75 45.4663 101.25 0 0 0 
211 47 1 37.5 51.9615 108.75 0 0 0 
212 47 2 36.5 51.9615 101.25 0 0 0 
321 71 1 41.25 45.4663 108.75 0 0 0 
322 71 2 40.25 45.4663 101.25 0 0 0 
331 73 1 45 51.9615 108.75 0 0 0 
332 73 2 44 51.9615 101.25 0 0 0 
429 95 2 47.75 45.4663 101.25 0 0 0 
1035 231 1 0 64.9519 108.75 1 0 0 
1161 259 1 3.75 58.4567 108.75 1 0 0 
1162 259 2 2.75 58.4567 101.25 1 0 0 
1170 261 1 7.5 64.9519 108.75 1 0 0 
1171 261 2 6.5 64.9519 101.25 1 0 0 
1295 289 4 11.25 58.4567 105 1 0 0 
1303 291 4 15 64.9519 105 1 0 0 
1423 319 1 18.75 58.4567 108.75 1 0 0 
1424 319 2 17.75 58.4567 101.25 1 0 0 
1432 321 1 22.5 64.9519 108.75 1 0 0 
1433 321 2 21.5 64.9519 101.25 1 0 0 
1559 349 1 26.25 58.4567 108.75 1 0 0 
1560 349 2 25.25 58.4567 101.25 1 0 0 
1569 351 4 30 64.9519 105 1 0 0 
82 19 1 33.75 58.4567 108.75 0 0 0 
83 19 2 32.75 58.4567 101.25 0 0 0 
92 21 4 37.5 64.9519 105 0 0 0 
220 49 4 41.25 58.4567 105 0 0 0 
228 51 1 45 64.9519 108.75 0 0 0 
229 51 2 44 64.9519 101.25 0 0 0 
923 205 4 0 77.9423 105 1 0 0 
1045 233 4 3.75 71.4471 105 1 0 0 
1053 235 4 7.5 77.9423 105 1 0 0 
1180 263 4 11.25 71.4471 105 1 0 0 
1188 265 4 15 77.9423 105 1 0 0 
1312 293 4 18.75 71.4471 105 1 0 0 
1320 295 4 22.5 77.9423 105 1 0 0 
1441 323 1 26.25 71.4471 108.75 1 0 0 
1442 323 2 25.25 71.4471 101.25 1 0 0 
1450 325 1 30 77.9423 108.75 1 0 0 
1451 325 2 29 77.9423 101.25 1 0 0 
101 23 4 41.25 71.4471 105 0 0 0 
110 25 4 45 77.9423 105 0 0 0 
239 53 2 47.75 71.4471 101.25 0 0 0 
1578 353 1 33.75 71.4471 108.75 1 0 0 
1579 353 2 32.75 71.4471 101.25 1 0 0 
1587 355 4 37.5 77.9423 105 1 0 0 
807 179 4 0 90.9327 105 1 0 0 
931 207 4 3.75 84.4375 105 1 0 0 
939 209 1 7.5 90.9327 108.75 1 0 0 
940 209 2 6.5 90.9327 101.25 1 0 0 
1061 237 4 11.25 84.4375 105 1 0 0 
1070 239 1 15 90.9327 108.75 1 0 0 
1071 239 2 14 90.9327 101.25 1 0 0 
1196 267 1 18.75 84.4375 108.75 1 0 0 
1197 267 2 17.75 84.4375 101.25 1 0 0 
1205 269 4 22.5 90.9327 105 1 0 0 
1328 297 1 26.25 84.4375 108.75 1 0 0 
1329 297 2 25.25 84.4375 101.25 1 0 0 
1338 299 1 30 90.9327 108.75 1 0 0 
1339 299 2 29 90.9327 101.25 1 0 0 
1459 327 4 33.75 84.4375 105 1 0 0 
1468 329 4 37.5 90.9327 105 1 0 0 
1595 357 4 41.25 84.4375 105 1 0 0 
1604 359 4 45 90.9327 105 1 0 0 
713 158 1 48.75 6.49519 41.25 0 0 0 
821 182 1 52.5 0 41.25 0 0 0 
822 182 2 51.5 0 48.75 0 0 0 
831 184 4 56.25 6.49519 45 0 0 0 
839 186 4 60 12.9904 45 0 0 0 
953 212 1 60 0 41.25 0 0 0 
954 212 2 59 0 48.75 0 0 0 
962 214 4 63.75 6.49519 45 0 0 0 
971 216 4 67.5 12.9904 45 0 0 0 
1084 242 4 67.5 0 45 0 0 0 
1092 244 1 71.25 6.49519 41.25 0 0 0 
1093 244 2 70.25 6.49519 48.75 0 0 0 
1102 246 1 75 12.9904 41.25 0 0 0 
1103 246 2 74 12.9904 48.75 0 0 0 
1218 272 1 75 0 41.25 0 0 0 
1219 272 2 74 0 48.75 0 0 0 
1227 274 1 78.75 6.49519 41.25 0 0 0 
1228 274 2 77.75 6.49519 48.75 0 0 0 
6 2 2 96.5 0 48.75 -1 0 0 
1237 276 4 82.5 12.9904 45 0 0 0 
1352 302 4 82.5 0 45 0 0 0 
1360 304 4 86.25 6.49519 45 0 0 0 