ITEM: TIMESTEP
1000
ITEM: NUMBER OF ATOMS
1685
ITEM: BOX BOUNDS pp pp pp
0.791518 96.7085
0.790932 96.6369
0 150
ITEM: ATOMS id mol type x y z ix iy iz 
15 4 4 4.30676 7.71932 43.9748 0 0 0 
23 6 4 7.94469 14.3333 44.681 0 0 0 
141 32 1 7.86292 1.27999 40.9321 0 0 0 
142 32 2 8.01646 1.91724 48.406 0 0 0 
151 34 4 11.9182 7.39734 46.3564 0 0 0 
160 36 4 15.486 13.4574 44.3799 0 0 0 
1501 336 2 1.45145 13.2609 49.8987 1 0 0 
1500 336 4 0.873663 14.0205 42.3605 1 0 0 
5 2 1 0.91379 1.88644 41.5753 0 0 0 
290 64 1 18.5181 7.55932 41.6437 0 0 0 
291 64 2 19.509 7.6533 49.0574 0 0 0 
299 66 1 23.7166 13.593 40.1726 0 0 0 
398 88 4 23.0092 1.39682 45.6784 0 0 0 
406 90 4 26.1555 8.80503 45.2912 0 0 0 
415 92 1 32.1497 14.1822 41.9496 0 0 0 
416 92 2 30.9305 13.7171 49.2289 0 0 0 
514 114 4 33.1368 7.54973 44.7981 0 0 0 
594 132 4 38.1486 1.59164 45.1759 0 0 0 
602 134 4 41.5045 9.17705 45.986 0 0 0 
705 156 4 46.58 1.00314 44.394 0 0 0 
713 158 1 47.953 10.2039 42.0236 0 0 0 
31 8 1 10.4622 20.5487 41.7669 0 0 0 
32 8 2 10.4658 19.254 49.115 0 0 0 
40 10 1 14.8343 25.9093 41.7881 0 0 0 
41 10 2 14.0691 25.9093 49.2736 0 0 0 
1508 338 4 4.339 19.8109 46.9212 1 0 0 
1517 340 1 7.84073 26.8611 42.0148 1 0 0 
1518 340 2 7.5944 26.6284 49.47 1 0 0 
300 66 2 22.9599 15.0198 47.47 0 0 0 
169 38 4 18.1465 21.0793 45.3857 0 0 0 
178 40 1 21.3252 25.5082 41.5386 0 0 0 
179 40 2 22.3344 25.9402 49.0092 0 0 0 
308 68 1 27.4607 20.9213 41.8392 0 0 0 
309 68 2 26.5638 20.7307 49.3037 0 0 0 
317 70 4 31.8168 27.5657 46.5252 0 0 0 
611 136 1 43.143 15.0548 43.5417 0 0 0 
1613 361 6 41.2817 21.5678 47.7991 0 0 0 
1392 312 1 4.20267 33.2697 41.5807 1 0 0 
1393 312 2 4.2211 32.9699 49.0467 1 0 0 
1402 314 4 8.68283 38.2775 45.8965 1 0 0 
1526 342 1 12.2324 32.393 43.6013 1 0 0 
1536 344 4 16.1886 38.3968 46.3398 1 0 0 
1273 284 4 1.42888 39.2846 43.9268 1 0 0 
50 12 4 18.4131 31.8472 46.3396 0 0 0 
59 14 4 24.2258 38.9889 44.7957 0 0 0 
188 42 1 25.2203 32.931 42.5614 0 0 0 
198 44 4 31.8481 37.2716 45.6345 0 0 0 
424 94 4 42.0974 39.8584 44.7121 0 0 0 
1281 286 4 5.1928 45.6376 45.4995 1 0 0 
1290 288 1 9.54601 50.636 41.3097 1 0 0 
1291 288 2 8.41876 51.3212 48.7679 1 0 0 
1410 316 4 11.7015 44.7413 45.1595 1 0 0 
1419 318 4 15.5113 51.2753 46.4367 1 0 0 
67 16 1 26.6443 43.7862 40.7694 0 0 0 
68 16 2 27.3671 44.3831 48.211 0 0 0 
77 18 1 31.1345 50.72 40.3917 0 0 0 
78 18 2 30.6256 50.8636 47.8676 0 0 0 
1545 346 1 18.7952 44.3568 42.5665 1 0 0 
1554 348 1 21.5071 51.6011 41.0809 1 0 0 
1555 348 2 23.1662 51.1436 48.4762 1 0 0 
207 46 4 33.7436 45.7832 44.9626 0 0 0 
216 48 4 38.3249 51.897 46.2042 0 0 0 
326 72 1 39.7476 45.9869 41.075 0 0 0 
327 72 2 40.0008 45.8948 48.6551 0 0 0 
336 74 1 44.3159 52.7046 42.3117 0 0 0 
337 74 2 43.7826 53.8041 49.6259 0 0 0 
433 96 4 47.3372 45.0532 46.3146 0 0 0 
1166 260 4 4.62871 56.4315 44.0005 1 0 0 
1175 262 1 8.05671 63.3968 41.841 1 0 0 
1176 262 2 7.13559 64.7632 49.1546 1 0 0 
1299 290 4 12.2022 57.8697 46.5379 1 0 0 
1307 292 1 16.0686 64.7086 42.2858 1 0 0 
1308 292 2 16.3544 65.2184 49.761 1 0 0 
1428 320 4 19.3787 57.7677 44.8601 1 0 0 
1437 322 4 22.4545 64.2742 45.5896 1 0 0 
1564 350 1 26.9251 59.268 42.1376 1 0 0 
1565 350 2 27.2833 58.1457 49.5895 1 0 0 
1573 352 1 28.709 65.3664 41.0073 1 0 0 
1574 352 2 29.9152 64.6387 48.4268 1 0 0 
87 20 1 33.2244 58.718 42.4495 0 0 0 
88 20 2 33.7684 57.3159 49.8438 0 0 0 
96 22 1 36.3599 65.4569 40.4644 0 0 0 
97 22 2 36.8888 65.5373 47.9667 0 0 0 
224 50 4 40.6643 59.6141 44.7865 0 0 0 
233 52 1 44.7918 64.03 40.8863 0 0 0 
234 52 2 45.3456 64.5504 48.2769 0 0 0 
345 76 4 48.5691 58.1757 45.819 0 0 0 
1049 234 4 5.80556 70.076 44.121 1 0 0 
1057 236 4 8.16413 76.7719 45.1762 1 0 0 
1184 264 4 12.8633 71.5777 46.7192 1 0 0 
1192 266 4 16.0555 76.967 44.0798 1 0 0 
1065 238 1 9.75105 82.1735 40.9303 1 0 0 
1066 238 2 11.3184 81.4548 48.2045 1 0 0 
1316 294 4 19.9628 71.4293 46.0176 1 0 0 
1324 296 4 23.4148 78.5472 44.9635 1 0 0 
1446 324 4 26.5089 71.7671 44.427 1 0 0 
1455 326 4 31.1613 78.0489 43.021 1 0 0 
105 24 1 41.379 71.8199 41.9007 0 0 0 
106 24 2 41.4397 70.5023 49.2674 0 0 0 
114 26 1 46.815 76.7956 41.1199 0 0 0 
115 26 2 46.0092 77.4893 48.5097 0 0 0 
1583 354 4 33.7649 71.6314 45.0775 1 0 0 
1591 356 4 38.4774 76.8836 46.0589 1 0 0 
280 62 1 16.0855 95.459 41.8623 0 -1 0 
281 62 2 16.161 96.2309 49.2677 0 -1 0 
935 208 4 4.67273 83.6253 45.1933 1 0 0 
944 210 4 6.91993 90.1321 46.0697 1 0 0 
1075 240 4 14.61 90.6267 46.3964 1 0 0 
811 180 1 1.56285 89.773 42.5264 1 0 0 
505 112 4 31.3635 96.0252 45.1016 0 -1 0 
1201 268 4 18.5063 83.7074 44.1225 1 0 0 
1209 270 1 22.9701 90.7369 41.7241 1 0 0 
1210 270 2 22.0541 90.8256 49.175 1 0 0 
1333 298 1 26.5502 83.8527 42.4303 1 0 0 
1334 298 2 26.0645 83.9632 49.849 1 0 0 
1343 300 4 29.3196 89.6931 45.5956 1 0 0 
1463 328 1 34.0032 85.0346 41.4841 1 0 0 
1464 328 2 33.965 83.6658 48.8702 1 0 0 
1472 330 1 37.8247 91.3902 41.8457 1 0 0 
1473 330 2 36.9029 90.4237 49.195 1 0 0 
1599 358 1 41.1199 84.4495 43.0182 1 0 0 
1608 360 1 45.3214 89.8946 41.1947 1 0 0 
1609 360 2 45.0242 90.3955 48.6686 1 0 0 
16 4 2 4.68278 6.98273 51.4421 0 0 0 
17 4 3 3.36228 6.8504 58.8212 0 0 0 
24 6 2 8.16948 13.5183 52.1822 0 0 0 
25 6 3 7.68231 14.0871 59.6387 0 0 0 
143 32 3 8.74552 3.02372 55.6959 0 0 0 
152 34 2 12.8982 8.30955 53.6871 0 0 0 
153 34 3 12.2047 8.8808 61.1349 0 0 0 
161 36 2 15.8131 14.0837 51.8171 0 0 0 
162 36 3 16.3087 14.3549 59.2456 0 0 0 
292 64 3 19.649 8.47446 56.5285 0 0 0 
301 66 3 23.2963 13.2644 54.7752 0 0 0 
399 88 2 22.7048 1.23149 53.1887 0 0 0 
400 88 3 23.3601 1.41305 60.6147 0 0 0 
407 90 2 26.8755 8.95807 52.7586 0 0 0 
408 90 3 27.0855 8.01262 60.1609 0 0 0 
417 92 3 30.0891 13.4423 56.6599 0 0 0 
507 112 3 31.263 1.0204 60.0314 0 0 0 
302 66 3 22.5747 12.8445 62.2236 0 0 0 
612 136 2 43.5145 13.4001 50.8752 0 0 0 
515 114 2 34.5893 7.77647 52.23 0 0 0 
516 114 3 33.6456 6.86629 59.677 0 0 0 
595 132 2 37.5816 1.21927 52.654 0 0 0 
596 132 3 37.512 0.839379 60.0698 0 0 0 
603 134 2 41.1914 7.29707 53.318 0 0 0 
604 134 3 39.6831 7.4166 60.6801 0 0 0 
613 136 3 44.6193 10.6854 57.7813 0 0 0 
706 156 2 45.3726 1.62999 51.8071 0 0 0 
707 156 3 45.1328 2.54112 59.2433 0 0 0 
1385 310 2 1.126 26.5846 52.099 1 0 0 
33 8 3 11.1406 19.3014 56.6939 0 0 0 
42 10 3 15.2851 26.3377 56.7242 0 0 0 
1509 338 2 3.66013 19.5579 54.3982 1 0 0 
1510 338 3 3.88818 19.3892 61.9387 1 0 0 
1519 340 3 6.79587 26.0158 56.9497 1 0 0 
170 38 2 19.7635 20.4156 52.7566 0 0 0 
171 38 3 20.3307 19.9252 60.3017 0 0 0 
180 40 3 22.1025 25.2816 56.3598 0 0 0 
310 68 3 26.1526 19.7181 56.7565 0 0 0 
318 70 2 28.766 25.6285 53.1375 0 0 0 
319 70 3 27.5141 25.483 60.6647 0 0 0 
1629 361 6 46.1505 25.2797 50.0233 0 0 0 
1614 361 6 39.9356 26.2054 50.4728 0 0 0 
1615 361 7 36.6794 24.6321 54.5535 0 0 0 
1616 361 7 38.3131 19.9038 56.4667 0 0 0 
1617 361 6 43.1533 20.7807 59.224 0 0 0 
1661 361 6 43.6428 26.3469 56.6595 0 0 0 
1630 361 6 45.8733 20.4616 52.6756 0 0 0 
1527 342 2 11.9684 33.1851 51.0717 1 0 0 
1275 284 3 0.889828 39.4092 58.9487 1 0 0 
1274 284 2 1.18611 39.7764 51.4965 1 0 0 
1394 312 3 4.12529 32.9511 56.5375 1 0 0 
1403 314 2 7.62338 38.1707 53.32 1 0 0 
1404 314 3 7.67965 38.4336 60.8124 1 0 0 
1528 342 3 12.4617 33.1237 58.5543 1 0 0 
1537 344 2 15.1048 38.6922 53.8354 1 0 0 
1538 344 3 14.6074 38.6846 61.3274 1 0 0 
189 42 2 25.9595 32.6584 50.0177 0 0 0 
51 12 2 19.166 32.217 53.8572 0 0 0 
52 12 3 18.3414 31.7466 61.1993 0 0 0 
60 14 2 23.6613 39.0567 52.2695 0 0 0 
61 14 3 23.2563 38.0377 59.7002 0 0 0 
190 42 3 26.6639 32.4511 57.3832 0 0 0 
199 44 2 31.0103 38.359 52.9833 0 0 0 
200 44 3 30.3455 37.9947 60.494 0 0 0 
425 94 2 43.9799 41.4599 51.8164 0 0 0 
1645 361 6 46.0983 30.8449 50.581 0 0 0 
1662 361 6 45.7164 29.6538 60.1592 0 0 0 
1663 361 7 41.5509 32.5722 61.9776 0 0 0 
1282 286 2 4.22601 45.7871 52.9201 1 0 0 
1283 286 3 3.59549 45.8945 60.4632 1 0 0 
1292 288 3 8.92752 51.8937 56.2029 1 0 0 
1411 316 2 12.5544 45.308 52.6277 1 0 0 
1412 316 3 11.9424 44.7864 60.1819 1 0 0 
1420 318 2 15.9892 51.3589 53.9905 1 0 0 
1421 318 3 15.779 51.4014 61.4397 1 0 0 
1546 346 2 19.1253 44.6759 50.0703 1 0 0 
69 16 3 26.9657 45.2836 55.6726 0 0 0 
79 18 3 30.9159 51.405 55.3269 0 0 0 
1547 346 3 20.0061 44.9135 57.4413 1 0 0 
1556 348 3 23.6936 50.8198 55.9659 1 0 0 
426 94 3 45.5861 42.2482 59.1281 0 0 0 
208 46 2 34.1202 46.3112 52.4643 0 0 0 
209 46 3 32.9063 45.2651 59.7567 0 0 0 
217 48 2 37.7637 52.3801 53.7326 0 0 0 
218 48 3 38.4251 52.9817 61.2423 0 0 0 
328 72 3 40.793 46.706 56.0791 0 0 0 
338 74 3 44.4845 52.4841 56.9884 0 0 0 
1167 260 2 4.66334 57.8066 51.3702 1 0 0 
1168 260 3 4.32086 59.0255 58.806 1 0 0 
1177 262 3 7.72685 64.2233 56.5592 1 0 0 
1300 290 2 11.2629 58.283 53.884 1 0 0 
1301 290 3 11.2521 57.8889 61.3991 1 0 0 
1186 264 3 12.2985 69.07 61.5097 1 0 0 
1309 292 3 17.2259 66.4484 57.1741 1 0 0 
1429 320 2 18.8061 58.7834 52.3191 1 0 0 
1430 320 3 18.1449 58.9299 59.908 1 0 0 
1438 322 2 22.5953 64.9198 52.9929 1 0 0 
1439 322 3 23.0577 64.2171 60.5309 1 0 0 
1566 350 3 26.4055 57.0497 56.9625 1 0 0 
1575 352 3 30.8124 62.7161 55.6129 1 0 0 
347 76 3 48.5265 58.3656 60.6871 0 0 0 
89 20 3 34.8024 57.039 57.3207 0 0 0 
98 22 3 37.265 64.6899 55.4364 0 0 0 
225 50 2 40.5733 58.7739 52.3265 0 0 0 
226 50 3 41.4005 58.2431 59.7044 0 0 0 
235 52 3 45.3705 65.3636 55.8177 0 0 0 
346 76 2 47.552 58.2153 53.3092 0 0 0 
1050 234 2 6.02681 70.9685 51.4993 1 0 0 
1051 234 3 5.68954 71.0486 59.0697 1 0 0 
1058 236 2 7.36075 77.5081 52.6708 1 0 0 
1059 236 3 7.72602 77.6413 60.1067 1 0 0 
1185 264 2 12.77 71.037 54.2634 1 0 0 
1193 266 2 15.891 77.2256 51.5677 1 0 0 
1194 266 3 15.1614 77.2544 59.078 1 0 0 
1067 238 3 11.3656 81.961 55.7474 1 0 0 
1317 294 2 19.3648 72.3284 53.4151 1 0 0 
1318 294 3 18.8639 71.7137 60.8111 1 0 0 
1325 296 2 22.9085 78.1699 52.4832 1 0 0 
1326 296 3 22.9375 77.9601 60.0257 1 0 0 
1447 324 2 26.4165 71.9367 51.8796 1 0 0 
1448 324 3 25.328 71.2552 59.2488 1 0 0 
1456 326 2 31.3281 77.3067 50.4038 1 0 0 
1457 326 3 30.6772 77.5493 57.9448 1 0 0 
107 24 3 40.2908 70.9808 56.6843 0 0 0 
116 26 3 44.9408 77.2532 55.9913 0 0 0 
1584 354 2 33.5787 70.5348 52.5303 1 0 0 
1585 354 3 33.1492 71.4523 59.9415 1 0 0 
1592 356 2 37.8695 78.3094 53.4746 1 0 0 
1593 356 3 36.9841 79.3621 60.8967 1 0 0 
282 62 3 15.2563 96.452 56.6282 0 -1 0 
936 208 2 4.89787 85.0734 52.5294 1 0 0 
937 208 3 3.90418 85.0892 60.0456 1 0 0 
945 210 2 7.53555 91.3342 53.4091 1 0 0 
946 210 3 8.56842 90.5597 60.7198 1 0 0 
1076 240 2 16.5977 90.7654 53.5802 1 0 0 
1077 240 3 16.2487 90.567 61.0264 1 0 0 
506 112 2 31.0155 95.6452 52.5601 0 -1 0 
1202 268 2 18.6239 83.8508 51.6293 1 0 0 
1203 268 3 18.7253 84.6654 59.1429 1 0 0 
1211 270 3 22.3406 90.8656 56.7333 1 0 0 
1335 298 3 26.3759 83.571 57.3813 1 0 0 
1344 300 2 29.2713 89.1338 53.1185 1 0 0 
1345 300 3 30.0467 88.6369 60.5309 1 0 0 
1600 358 2 41.4207 84.0599 50.5289 1 0 0 
1465 328 3 34.23 84.4118 56.3733 1 0 0 
1474 330 3 36.323 91.144 56.6117 1 0 0 
1601 358 3 41.3803 85.2598 57.8572 1 0 0 
1610 360 3 46.1499 91.1383 56.065 1 0 0 
18 4 3 4.53947 7.08492 66.1793 0 0 0 
26 6 3 7.90726 13.9696 67.1001 0 0 0 
144 32 3 8.2856 2.14108 63.1589 0 0 0 
145 32 3 9.6211 1.29329 70.5323 0 0 0 
154 34 3 11.4469 8.4715 68.5014 0 0 0 
163 36 3 15.9295 13.0902 66.5504 0 0 0 
283 62 3 14.8533 1.44629 64.1663 0 0 0 
284 62 3 16.3999 1.05144 71.4897 0 0 0 
293 64 3 18.653 8.00366 63.9502 0 0 0 
294 64 3 20.2612 7.9838 71.245 0 0 0 
303 66 3 21.9908 14.1274 69.514 0 0 0 
401 88 3 21.34 1.44842 67.8764 0 0 0 
409 90 3 26.5892 7.24379 67.5296 0 0 0 
418 92 3 29.964 13.046 64.164 0 0 0 
419 92 3 31.2363 13.0043 71.5567 0 0 0 
517 114 3 33.4516 6.11265 67.134 0 0 0 
605 134 3 39.7986 7.77391 68.2444 0 0 0 
614 136 3 45.6544 10.5713 65.2062 0 0 0 
615 136 3 47.0062 11.4502 72.5075 0 0 0 
708 156 3 45.4471 2.07232 66.7852 0 0 0 
1387 310 3 1.19504 25.4881 66.9852 1 0 0 
34 8 3 11.9068 20.2026 64.1413 0 0 0 
35 8 3 13.7312 19.0365 71.2761 0 0 0 
43 10 3 14.9412 26.2812 64.2113 0 0 0 
44 10 3 15.8791 25.9621 71.5887 0 0 0 
1511 338 3 4.71327 19.8385 69.426 1 0 0 
1520 340 3 7.4194 25.2027 64.3134 1 0 0 
1521 340 3 7.27416 25.7163 71.761 1 0 0 
172 38 3 20.1673 19.848 67.6936 0 0 0 
181 40 3 21.7372 26.5878 63.7508 0 0 0 
182 40 3 22.1923 28.0734 71.1204 0 0 0 
311 68 3 26.2319 18.8736 64.1834 0 0 0 
312 68 3 27.0236 19.9312 71.5321 0 0 0 
320 70 3 27.2434 25.7928 68.1757 0 0 0 
1622 361 6 42.8718 24.3081 74.7202 0 0 0 
1618 361 6 42.3154 24.5747 63.043 0 0 0 
1619 361 7 37.7559 23.17 65.9697 0 0 0 
1620 361 7 39.0029 18.5807 68.6454 0 0 0 
1621 361 6 43.702 19.691 71.334 0 0 0 
1634 361 6 48.0387 24.0313 65.8536 0 0 0 
1665 361 6 43.1764 27.7941 69.1964 0 0 0 
1395 312 3 4.62196 32.5164 63.919 1 0 0 
1396 312 3 3.92741 31.9834 71.4496 1 0 0 
1405 314 3 8.05924 38.8986 68.2515 1 0 0 
1529 342 3 12.0981 32.5442 66.0233 1 0 0 
1530 342 3 11.6786 32.3058 73.6014 1 0 0 
1539 344 3 14.5231 38.4684 68.8337 1 0 0 
53 12 3 18.4691 33.3549 68.5058 0 0 0 
62 14 3 23.5528 38.9593 67.2493 0 0 0 
191 42 3 28.5958 33.1197 64.597 0 0 0 
192 42 3 29.4149 33.445 72.0266 0 0 0 
201 44 3 29.5733 38.8539 67.9307 0 0 0 
427 94 3 46.0771 40.5566 66.3413 0 0 0 
1649 361 6 48.386 31.0896 65.6583 0 0 0 
1664 361 7 39.1936 29.6453 65.674 0 0 0 
1666 361 6 44.779 32.2623 72.0849 0 0 0 
1284 286 3 3.25437 45.6645 67.9366 1 0 0 
1293 288 3 8.77503 52.5453 63.708 1 0 0 
1294 288 3 8.46932 52.8245 71.1424 1 0 0 
1413 316 3 11.9725 44.4295 67.6191 1 0 0 
1422 318 3 15.0955 50.9087 68.8831 1 0 0 
70 16 3 26.2304 44.1528 63.1067 0 0 0 
71 16 3 26.7807 44.4044 70.6643 0 0 0 
80 18 3 30.8813 50.7587 62.763 0 0 0 
81 18 3 29.7771 51.149 70.2899 0 0 0 
1548 346 3 18.9873 45.0609 64.8803 1 0 0 
1549 346 3 19.3259 44.1192 72.3261 1 0 0 
1557 348 3 23.2904 51.545 63.499 1 0 0 
1558 348 3 22.4932 52.7737 70.8764 1 0 0 
210 46 3 33.1745 45.2708 67.3184 0 0 0 
219 48 3 36.749 52.4784 68.5147 0 0 0 
329 72 3 40.9775 45.2573 63.3292 0 0 0 
330 72 3 40.4716 43.8973 70.7338 0 0 0 
339 74 3 45.3153 52.6101 64.3984 0 0 0 
340 74 3 46.7102 52.3847 71.8017 0 0 0 
1169 260 3 4.67624 58.1464 66.2665 1 0 0 
1178 262 3 8.40767 63.437 64.0335 1 0 0 
1179 262 3 7.66839 63.7484 71.5303 1 0 0 
1302 290 3 12.0383 57.7935 68.84 1 0 0 
1187 264 3 9.98705 68.6888 68.7167 1 0 0 
1044 232 3 1.28569 65.0465 71.494 1 0 0 
1310 292 3 17.563 66.3178 64.7028 1 0 0 
1311 292 3 17.6232 65.4344 72.2138 1 0 0 
1431 320 3 18.2704 56.6833 67.059 1 0 0 
1440 322 3 24.4095 63.8179 67.8828 1 0 0 
1567 350 3 26.2074 57.239 64.466 1 0 0 
1568 350 3 27.4627 58.3571 71.7507 1 0 0 
1576 352 3 29.547 62.7469 62.9678 1 0 0 
1577 352 3 30.6984 64.9033 70.077 1 0 0 
90 20 3 34.6856 57.9488 64.7236 0 0 0 
91 20 3 34.6115 59.1729 72.1956 0 0 0 
99 22 3 37.1286 63.6899 62.8514 0 0 0 
100 22 3 38.5021 64.873 70.1468 0 0 0 
227 50 3 42.3612 57.8248 67.0834 0 0 0 
236 52 3 45.2658 64.8881 63.286 0 0 0 
237 52 3 46.659 63.3637 70.5188 0 0 0 
1068 238 3 13.6409 82.6369 62.9055 1 0 0 
1052 234 3 4.01194 70.7757 66.4302 1 0 0 
1060 236 3 7.9305 77.9952 67.6224 1 0 0 
1069 238 3 12.9887 81.7444 70.3365 1 0 0 
1337 298 3 26.6022 82.2831 72.2473 1 0 0 
1336 298 3 26.8609 82.7703 64.7282 1 0 0 
1195 266 3 16.7865 78.3527 66.3272 1 0 0 
1319 294 3 19.2653 72.2419 68.368 1 0 0 
1327 296 3 24.2415 77.5159 67.3516 1 0 0 
1449 324 3 26.3966 69.6991 66.5166 1 0 0 
1458 326 3 32.0657 76.5624 65.2582 1 0 0 
108 24 3 41.7006 71.292 63.9666 0 0 0 
109 24 3 42.4062 71.047 71.4387 0 0 0 
117 26 3 44.7142 77.8743 63.3336 0 0 0 
118 26 3 45.3829 76.937 70.8101 0 0 0 
1586 354 3 34.9552 70.9772 67.2089 1 0 0 
1594 356 3 37.2221 78.2484 68.2666 1 0 0 
815 180 3 0.796179 88.3243 71.8252 1 0 0 
1078 240 3 14.9453 91.3532 68.2961 1 0 0 
938 208 3 4.477 84.7402 67.4922 1 0 0 
947 210 3 7.4036 90.9729 68.1944 1 0 0 
1346 300 3 30.7822 89.1956 67.938 1 0 0 
1212 270 3 23.4274 91.5268 64.095 1 0 0 
1204 268 3 18.8892 84.2938 66.5913 1 0 0 
508 112 3 29.9471 96.5565 67.4128 0 -1 0 
1213 270 3 24.7359 92.9181 71.3572 1 0 0 
1612 360 3 46.5641 91.0482 70.9138 1 0 0 
1611 360 3 46.5026 92.0425 63.4852 1 0 0 
1603 358 3 43.0221 83.0297 72.3943 1 0 0 
1602 358 3 42.4376 85.3011 65.2614 1 0 0 
1476 330 3 37.0534 90.8245 71.5449 1 0 0 
1475 330 3 36.0632 91.4265 64.095 1 0 0 
1467 328 3 35.0491 84.1039 71.3065 1 0 0 
1466 328 3 34.1103 84.5933 63.8692 1 0 0 
597 132 3 38.3972 96.0198 67.4568 0 -1 0 
13 3 3 4.09515 6.87637 86.6063 0 0 0 
14 3 3 4.34061 7.66328 79.0897 0 0 0 
22 5 3 6.63575 13.0629 83.075 0 0 0 
139 31 3 7.20249 1.14891 85.9985 0 0 0 
140 31 3 7.38718 1.65565 78.5837 0 0 0 
149 33 3 12.1541 6.94116 85.7959 0 0 0 
150 33 3 12.2131 6.85412 78.2954 0 0 0 
158 35 3 14.0099 13.9288 84.7306 0 0 0 
159 35 3 15.1299 14.0218 77.2719 0 0 0 
278 61 3 16.0568 1.19581 85.3436 0 0 0 
279 61 3 17.2224 1.21213 77.8655 0 0 0 
288 63 3 20.6091 7.53504 86.0961 0 0 0 
289 63 3 20.3167 7.8654 78.5796 0 0 0 
405 89 3 26.8729 8.18972 82.6201 0 0 0 
413 91 3 29.4945 14.3013 86.2517 0 0 0 
414 91 3 29.8362 13.9436 78.7 0 0 0 
504 111 3 30.1062 1.59733 80.7616 0 0 0 
512 113 3 34.2327 7.18142 85.5605 0 0 0 
513 113 3 34.0749 7.48268 78.1818 0 0 0 
592 131 3 38.2119 1.37429 85.7133 0 0 0 
593 131 3 37.5796 0.858691 78.2373 0 0 0 
601 133 3 39.4834 6.58083 82.383 0 0 0 
609 135 3 45.0055 11.2728 86.5522 0 0 0 
610 135 3 45.5789 9.75138 79.2922 0 0 0 
704 155 3 46.8769 1.65269 78.1607 0 0 0 
30 7 3 12.0102 21.3619 81.7982 0 0 0 
39 9 3 15.6518 26.7638 83.7327 0 0 0 
1507 337 3 4.13199 19.9354 82.3894 1 0 0 
1515 339 3 9.12954 25.7878 86.1053 1 0 0 
1516 339 3 9.27829 27.6262 78.741 1 0 0 
1499 335 3 1.92959 14.6097 78.7646 1 0 0 
298 65 3 21.4433 15.1421 83.7695 0 0 0 
167 37 3 17.1801 19.6585 86.9451 0 0 0 
168 37 3 18.499 19.8405 79.4777 0 0 0 
176 39 3 22.2762 25.1813 86.347 0 0 0 
177 39 3 21.935 26.2394 78.8915 0 0 0 
307 67 3 26.9261 19.8021 83.0611 0 0 0 
316 69 3 28.7682 26.4347 82.616 0 0 0 
1623 361 7 38.4691 22.8059 77.9093 0 0 0 
1624 361 7 40.2758 19.2853 81.9401 0 0 0 
1625 361 6 44.6433 21.7354 84.5446 0 0 0 
1638 361 6 46.3237 21.6704 78.707 0 0 0 
1669 361 6 42.8899 28.042 81.0039 0 0 0 
1626 361 6 42.3312 25.6624 87.4455 0 0 0 
1391 311 3 5.25127 33.2415 82.0428 1 0 0 
1400 313 3 9.3745 40.0492 86.9867 1 0 0 
1401 313 3 8.77819 41.1631 79.6093 1 0 0 
1525 341 3 11.7501 34.7799 82.5385 1 0 0 
1534 343 3 16.2246 39.6132 86.0959 1 0 0 
1535 343 3 16.5343 37.6192 78.8495 1 0 0 
48 11 3 18.7011 32.0837 86.4638 0 0 0 
49 11 3 20.4911 32.1893 79.0416 0 0 0 
57 13 3 22.7964 38.6648 84.8771 0 0 0 
58 13 3 22.9813 38.1796 77.3568 0 0 0 
186 41 3 26.3462 31.9873 86.065 0 0 0 
187 41 3 26.8274 30.753 78.6771 0 0 0 
196 43 3 30.3037 39.3358 87.305 0 0 0 
197 43 3 30.2856 39.2873 79.7905 0 0 0 
1653 361 6 46.3873 32.0499 77.7779 0 0 0 
1668 361 7 38.7979 29.9914 77.6189 0 0 0 
1670 361 6 44.5585 32.1287 84.2152 0 0 0 
1671 361 7 39.9619 34.3594 86.2589 0 0 0 
1667 361 7 40.7967 34.1707 75.0673 0 0 0 
1155 257 3 1.39948 52.3368 78.7472 1 0 0 
1280 285 3 5.46372 46.449 82.1724 1 0 0 
1288 287 3 8.61849 51.9182 86.334 1 0 0 
1289 287 3 8.50348 50.9932 78.9256 1 0 0 
1409 315 3 11.4753 45.9411 82.595 1 0 0 
1417 317 3 16.2043 51.8699 85.3536 1 0 0 
1418 317 3 14.8216 51.7147 78.0266 1 0 0 
66 15 3 26.3374 44.216 82.9395 0 0 0 
75 17 3 29.0734 51.8528 86.128 0 0 0 
76 17 3 28.3441 51.0029 78.6905 0 0 0 
1543 345 3 19.5283 45.305 87.3236 1 0 0 
1544 345 3 19.4451 46.0194 79.8854 1 0 0 
1553 347 3 21.3602 53.413 82.0633 1 0 0 
423 93 3 47.3636 42.0314 82.7813 0 0 0 
205 45 3 34.0796 45.4962 87.0228 0 0 0 
206 45 3 34.6484 45.2611 79.5474 0 0 0 
214 47 3 38.0158 52.0079 85.426 0 0 0 
215 47 3 37.6324 52.4371 77.9856 0 0 0 
324 71 3 41.5086 45.2694 86.6395 0 0 0 
325 71 3 42.5234 44.8373 79.2469 0 0 0 
334 73 3 45.2026 53.6281 85.7129 0 0 0 
335 73 3 45.8858 53.4158 78.245 0 0 0 
431 95 3 48.337 47.3602 87.0436 0 0 0 
1164 259 3 4.29941 58.1088 86.3691 1 0 0 
1165 259 3 4.58775 57.6939 78.8902 1 0 0 
1173 261 3 8.47559 65.4697 86.5518 1 0 0 
1174 261 3 8.88019 65.5416 79.1213 1 0 0 
1298 289 3 11.2379 58.0314 83.1013 1 0 0 
1306 291 3 15.9212 64.4248 82.9768 1 0 0 
1048 233 3 3.91887 68.3859 82.1666 1 0 0 
1038 231 3 1.07248 63.3838 85.8172 1 0 0 
1426 319 3 19.1124 59.0816 86.1352 1 0 0 
1427 319 3 20.8661 58.6607 78.9121 1 0 0 
1435 321 3 23.3053 65.0104 86.1342 1 0 0 
1436 321 3 22.0046 65.7052 78.8384 1 0 0 
1562 349 3 26.2379 58.6666 86.8981 1 0 0 
1563 349 3 27.3532 60.6157 79.7703 1 0 0 
1572 351 3 29.7509 66.0116 83.0754 1 0 0 
85 19 3 34.5048 58.5824 86.1905 0 0 0 
86 19 3 34.4927 59.3567 78.7736 0 0 0 
95 21 3 37.4496 63.7298 82.5987 0 0 0 
223 49 3 40.3758 57.7715 81.802 0 0 0 
231 51 3 45.5362 64.0596 85.2505 0 0 0 
232 51 3 47.3068 63.2127 77.9992 0 0 0 
1056 235 3 7.85365 77.5704 84.139 1 0 0 
1183 263 3 11.9581 70.1271 83.0672 1 0 0 
1191 265 3 14.884 76.689 82.3226 1 0 0 
1315 293 3 19.8468 71.1904 83.9877 1 0 0 
1323 295 3 23.7312 77.0307 81.2904 1 0 0 
1444 323 3 27.9198 71.0063 87.1532 1 0 0 
1445 323 3 26.7625 70.9069 79.7225 1 0 0 
1453 325 3 30.9388 76.0329 85.0483 1 0 0 
1454 325 3 31.839 77.1539 77.7046 1 0 0 
1331 297 3 26.8964 82.6224 86.1132 1 0 0 
1332 297 3 27.2727 81.9459 78.5864 1 0 0 
104 23 3 40.6582 69.945 81.6036 0 0 0 
113 25 3 44.5339 76.9806 82.7807 0 0 0 
1581 353 3 34.2166 69.4455 85.8081 1 0 0 
1582 353 3 33.3355 70.472 78.5297 1 0 0 
1590 355 3 36.3506 78.2501 83.3069 1 0 0 
241 53 3 48.265 69.9861 86.0098 0 0 0 
810 179 3 1.07347 89.6553 81.9292 1 0 0 
934 207 3 5.14599 84.9978 82.9285 1 0 0 
943 209 3 8.6922 89.9057 80.0706 1 0 0 
1064 237 3 11.7793 84.2876 82.7924 1 0 0 
1073 239 3 15.5103 89.6802 85.8071 1 0 0 
1074 239 3 16.0216 89.8454 78.2668 1 0 0 
396 87 3 24.8516 96.1376 85.6839 0 -1 0 
397 87 3 24.098 96.3696 78.2516 0 -1 0 
1199 267 3 19.7503 83.0015 86.2535 1 0 0 
1200 267 3 20.0513 83.0687 78.7114 1 0 0 
1208 269 3 23.9564 88.6654 82.3366 1 0 0 
1341 299 3 30.6388 90.9477 85.8352 1 0 0 
1342 299 3 30.5413 90.5822 78.3961 1 0 0 
703 155 3 46.8817 96.5821 85.5802 0 -1 0 
1462 327 3 33.2578 84.972 81.7758 1 0 0 
1471 329 3 38.6688 90.5788 82.7812 1 0 0 
1598 357 3 41.1673 83.516 83.5763 1 0 0 
1607 359 3 45.0129 89.9973 82.0452 1 0 0 
2 1 2 0.955905 1.87959 97.4241 0 0 0 
3 1 3 0.941015 1.05713 89.9829 0 0 0 
12 3 3 4.07076 7.44084 94.0627 0 0 0 
20 5 2 8.13124 13.9896 97.9144 0 0 0 
21 5 3 6.59514 12.6895 90.5992 0 0 0 
148 33 3 11.88 7.87554 93.1753 0 0 0 
157 35 3 15.0656 14.0124 92.171 0 0 0 
277 61 3 14.991 1.86274 92.7148 0 0 0 
156 35 2 15.9635 13.1649 99.5632 0 0 0 
503 111 3 31.3251 1.82998 88.1576 0 0 0 
287 63 3 19.2666 7.62068 93.4032 0 0 0 
296 65 2 22.899 13.0028 98.522 0 0 0 
297 65 3 22.0179 13.7749 91.1663 0 0 0 
403 89 2 27.9592 6.69098 97.4624 0 0 0 
404 89 3 26.8606 8.27384 90.1382 0 0 0 
412 91 3 30.2237 13.2044 93.6111 0 0 0 
502 111 3 31.1963 1.39723 95.5961 0 0 0 
511 113 3 34.1735 6.99171 93.131 0 0 0 
591 131 3 38.2937 1.5008 93.3095 0 0 0 
599 133 2 40.3924 6.18541 97.3197 0 0 0 
600 133 3 40.0376 6.8823 89.9317 0 0 0 
608 135 3 44.7656 10.7433 94.0336 0 0 0 
28 7 2 11.529 20.2556 96.6882 0 0 0 
29 7 3 11.3774 20.3295 89.1995 0 0 0 
37 9 2 15.3157 26.0028 98.5609 0 0 0 
38 9 3 16.0858 26.0374 91.1313 0 0 0 
1505 337 2 3.77766 20.001 97.3459 1 0 0 
1506 337 3 4.53806 20.0241 89.8584 1 0 0 
1514 339 3 8.15346 24.8339 93.3837 1 0 0 
166 37 3 17.4714 19.8222 94.4135 0 0 0 
175 39 3 22.2917 25.9477 93.7984 0 0 0 
305 67 2 25.9123 19.9206 97.9069 0 0 0 
306 67 3 25.9439 20.3592 90.4801 0 0 0 
314 69 2 29.6354 26.8718 97.3451 0 0 0 
315 69 3 28.1691 27.0231 90.0386 0 0 0 
1627 361 7 37.6619 23.216 89.9667 0 0 0 
1628 361 7 39.8408 19.5992 93.6992 0 0 0 
1642 361 6 48.4928 21.8134 91.3666 0 0 0 
1677 361 8 43.9995 22.1527 96.1884 0 0 0 
1641 361 6 48.5264 25.4674 87.5476 0 0 0 
1270 283 2 1.07142 39.7461 97.9562 1 0 0 
1389 311 2 3.26779 32.9499 96.7747 1 0 0 
1390 311 3 3.85131 32.6393 89.3847 1 0 0 
1399 313 3 8.58593 39.4574 94.4233 1 0 0 
1523 341 2 10.5535 33.2624 97.3744 1 0 0 
1524 341 3 11.0958 34.7943 90.0074 1 0 0 
1533 343 3 15.01 38.969 93.4664 1 0 0 
47 11 3 17.2732 31.9233 93.7683 0 0 0 
56 13 3 22.5357 39.1671 92.3979 0 0 0 
185 41 3 27.2852 32.878 93.4182 0 0 0 
195 43 3 30.6257 38.9713 94.8907 0 0 0 
55 13 2 23.3704 38.8634 99.8113 0 0 0 
421 93 2 44.405 40.8023 97.408 0 0 0 
422 93 3 46.0283 41.5732 90.2112 0 0 0 
1657 361 6 47.7457 30.699 90.8554 0 0 0 
1672 361 7 37.7839 31.405 90.204 0 0 0 
1673 361 6 42.091 29.2987 92.852 0 0 0 
1674 361 6 43.9423 33.3346 96.0832 0 0 0 
1658 361 6 48.5057 28.5166 95.465 0 0 0 
1675 361 7 39.856 35.426 98.9148 0 0 0 
1278 285 2 4.80305 46.4735 97.043 1 0 0 
1279 285 3 5.21944 45.9791 89.6452 1 0 0 
1287 287 3 8.84155 51.1502 93.7635 1 0 0 
1407 315 2 12.1465 44.6328 97.4764 1 0 0 
1408 315 3 12.5128 45.6191 90.0473 1 0 0 
1416 317 3 15.8233 51.7407 92.8318 1 0 0 
1153 257 3 1.52894 50.5256 93.4475 1 0 0 
64 15 2 26.4019 45.9337 97.5444 0 0 0 
65 15 3 27.5659 45.7026 90.1379 0 0 0 
74 17 3 28.5659 52.6631 93.5361 0 0 0 
1542 345 3 18.796 44.4572 94.6695 1 0 0 
1551 347 2 22.1704 52.5161 96.9889 1 0 0 
1552 347 3 21.9989 52.8479 89.4785 1 0 0 
430 95 3 48.0344 47.5789 94.5688 0 0 0 
204 45 3 33.1648 46.326 94.4191 0 0 0 
213 47 3 38.297 52.4517 93.0049 0 0 0 
323 71 3 41.3305 45.754 94.2133 0 0 0 
333 73 3 44.9594 53.0925 93.2022 0 0 0 
1163 259 3 4.54049 56.8036 93.7195 1 0 0 
1172 261 3 8.97182 64.9736 94.147 1 0 0 
1296 289 2 10.4266 58.4031 98.142 1 0 0 
1297 289 3 10.7955 58.4394 90.6736 1 0 0 
1304 291 2 15.8674 64.6517 97.7121 1 0 0 
1305 291 3 14.7647 64.7145 90.3351 1 0 0 
1425 319 3 19.0608 58.1302 93.6194 1 0 0 
1434 321 3 22.84 65.1725 93.6166 1 0 0 
1561 349 3 25.9084 58.8215 94.3161 1 0 0 
1570 351 2 29.9551 65.2711 97.9971 1 0 0 
1571 351 3 29.6431 65.3843 90.5175 1 0 0 
84 19 3 34.7585 58.9007 93.7304 0 0 0 
93 21 2 38.2098 64.2895 97.4608 0 0 0 
94 21 3 37.4706 63.808 90.0562 0 0 0 
221 49 2 41.0583 57.6239 96.677 0 0 0 
222 49 3 41.3888 58.0457 89.1623 0 0 0 
230 51 3 44.4869 64.2462 92.6737 0 0 0 
1580 353 3 34.7893 69.1601 93.3292 1 0 0 
1046 233 2 4.02228 71.1799 96.7478 1 0 0 
1047 233 3 4.31997 70.6761 89.2419 1 0 0 
1054 235 2 7.80118 77.061 99.019 1 0 0 
1055 235 3 7.9714 76.7197 91.6241 1 0 0 
1181 263 2 11.172 70.7629 98.0976 1 0 0 
1182 263 3 11.2019 71.2139 90.5109 1 0 0 
1189 265 2 15.139 77.1205 97.1075 1 0 0 
1190 265 3 14.3882 76.6327 89.7452 1 0 0 
1313 293 2 19.517 71.0839 98.97 1 0 0 
1314 293 3 19.828 71.5069 91.526 1 0 0 
1321 295 2 22.9662 76.2258 96.1688 1 0 0 
1322 295 3 23.351 75.7707 88.729 1 0 0 
1443 323 3 27.7163 70.6981 94.6719 1 0 0 
1452 325 3 30.897 76.9388 92.5462 1 0 0 
1198 267 3 18.792 82.1103 93.7454 1 0 0 
1451 325 2 30.0138 77.1365 99.9604 1 0 0 
102 23 2 41.9936 70.5892 96.5207 0 0 0 
103 23 3 40.8211 70.851 89.076 0 0 0 
111 25 2 44.9137 76.9113 97.6062 0 0 0 
112 25 3 44.2193 76.7836 90.2071 0 0 0 
1588 355 2 37.2885 77.3794 98.3316 1 0 0 
1589 355 3 37.0942 78.0594 90.8338 1 0 0 
240 53 3 48.6954 70.3892 93.5158 0 0 0 
808 179 2 0.971351 89.6777 96.8468 1 0 0 
942 209 3 8.61906 89.9777 87.6465 1 0 0 
138 31 3 7.27438 96.0457 93.4785 0 -1 0 
932 207 2 5.07356 83.8674 97.7611 1 0 0 
933 207 3 5.16779 83.5866 90.2756 1 0 0 
941 209 3 7.98259 89.6166 95.1572 1 0 0 
1062 237 2 11.5492 83.2835 97.5771 1 0 0 
1063 237 3 11.4077 83.7839 90.2084 1 0 0 
1072 239 3 15.3221 89.7019 93.2761 1 0 0 
395 87 3 24.1156 96.4876 93.1433 0 -1 0 
1206 269 2 21.6406 88.7149 97.177 1 0 0 
1207 269 3 22.9562 88.3519 89.7986 1 0 0 
1330 297 3 26.3121 83.003 93.6288 1 0 0 
1340 299 3 31.8284 90.5647 93.2033 1 0 0 
1460 327 2 32.6746 83.4976 96.7095 1 0 0 
702 155 3 45.7994 96.4211 93.0441 0 -1 0 
1461 327 3 33.5093 84.2794 89.3046 1 0 0 
1469 329 2 37.4524 90.8606 97.5261 1 0 0 
1470 329 3 37.2628 90.9862 90.1366 1 0 0 
1596 357 2 40.5057 83.7459 98.702 1 0 0 
1597 357 3 40.8676 83.91 91.1849 1 0 0 
1605 359 2 44.273 89.0486 96.8676 1 0 0 
1606 359 3 45.0126 89.9122 89.5309 1 0 0 
10 3 1 2.96591 8.02147 109.001 0 0 0 
11 3 2 4.088 7.52965 101.591 0 0 0 
19 5 4 7.57356 13.7541 105.504 0 0 0 
137 31 2 7.15605 1.34139 100.876 0 0 0 
146 33 1 11.5152 7.88974 108.087 0 0 0 
147 33 2 10.8465 8.14712 100.625 0 0 0 
155 35 1 14.8743 14.3077 106.817 0 0 0 
275 61 1 14.1306 1.82808 107.547 0 0 0 
276 61 2 14.1141 1.77375 100.118 0 0 0 
285 63 1 19.2721 7.935 108.419 0 0 0 
286 63 2 19.0718 7.22351 100.945 0 0 0 
295 65 4 23.7895 12.0123 105.809 0 0 0 
402 89 4 27.6983 6.02672 104.914 0 0 0 
410 91 1 29.8519 13.9929 108.367 0 0 0 
411 91 2 29.5663 12.5919 100.975 0 0 0 
500 111 1 30.6289 1.12511 110.394 0 0 0 
509 113 1 33.8131 7.69275 107.995 0 0 0 
510 113 2 33.8184 6.54772 100.606 0 0 0 
590 131 2 37.9405 1.07252 100.824 0 0 0 
598 133 4 42.2209 5.58985 104.545 0 0 0 
606 135 1 43.6064 13.4868 108.683 0 0 0 
607 135 2 44.2698 11.648 101.481 0 0 0 
27 7 4 11.9184 20.638 104.236 0 0 0 
36 9 4 15.6859 26.7474 106.03 0 0 0 
1504 337 4 3.70292 20.0443 104.887 1 0 0 
1512 339 1 6.21988 26.033 108.09 1 0 0 
1513 339 2 7.4983 26.1002 100.733 1 0 0 
164 37 1 18.8421 20.6434 109.295 0 0 0 
165 37 2 18.1078 20.2284 101.88 0 0 0 
173 39 1 22.9761 27.6608 108.648 0 0 0 
174 39 2 22.354 27.0137 101.13 0 0 0 
304 67 4 25.3143 20.677 105.353 0 0 0 
313 69 4 29.9708 26.6339 104.854 0 0 0 
1678 361 8 44.6484 20.3133 101.372 0 0 0 
1388 311 4 4.16966 31.9781 104.139 1 0 0 
1397 313 1 7.23233 37.478 108.973 1 0 0 
1398 313 2 7.08588 39.5918 101.732 1 0 0 
1522 341 4 10.6182 32.1246 104.832 1 0 0 
1531 343 1 14.0099 37.4759 108.199 1 0 0 
1532 343 2 14.4638 38.6996 100.842 1 0 0 
45 11 1 18.7177 33.1316 108.675 0 0 0 
46 11 2 18.2467 32.0959 101.213 0 0 0 
54 13 1 23.905 38.5628 107.327 0 0 0 
183 41 1 28.5348 32.2996 108.207 0 0 0 
184 41 2 27.6641 32.3031 100.859 0 0 0 
193 43 1 31.0658 39.1462 109.895 0 0 0 
194 43 2 30.2708 39.755 102.394 0 0 0 
1683 361 8 45.9913 30.59 103.609 0 0 0 
420 93 4 44.4937 39.3739 104.816 0 0 0 