ITEM: TIMESTEP
0
ITEM: NUMBER OF ATOMS
1685
ITEM: BOX BOUNDS pp pp pp
0 97.5
0 97.4279
0 150
ITEM: ATOMS id mol type x y z ix iy iz 
5 2 1 0 0 41.25 0 0 0 
15 4 4 3.75 6.49519 45 0 0 0 
23 6 4 7.5 12.9904 45 0 0 0 
141 32 1 7.5 0 41.25 0 0 0 
142 32 2 6.5 0 48.75 0 0 0 
151 34 4 11.25 6.49519 45 0 0 0 
1500 336 4 0 12.9904 45 1 0 0 
160 36 4 15 12.9904 45 0 0 0 
280 62 1 15 0 41.25 0 0 0 
281 62 2 14 0 48.75 0 0 0 
290 64 1 18.75 6.49519 41.25 0 0 0 
291 64 2 17.75 6.49519 48.75 0 0 0 
299 66 1 22.5 12.9904 41.25 0 0 0 
300 66 2 21.5 12.9904 48.75 0 0 0 
398 88 4 22.5 0 45 0 0 0 
406 90 4 26.25 6.49519 45 0 0 0 
415 92 1 30 12.9904 41.25 0 0 0 
416 92 2 29 12.9904 48.75 0 0 0 
505 112 4 30 0 45 0 0 0 
514 114 4 33.75 6.49519 45 0 0 0 
594 132 4 37.5 0 45 0 0 0 
602 134 4 41.25 6.49519 45 0 0 0 
611 136 1 45 12.9904 41.25 0 0 0 
612 136 2 44 12.9904 48.75 0 0 0 
705 156 4 45 0 45 0 0 0 
713 158 1 48.75 6.49519 41.25 0 0 0 
714 158 2 47.75 6.49519 48.75 0 0 0 
821 182 1 52.5 0 41.25 0 0 0 
822 182 2 51.5 0 48.75 0 0 0 
831 184 4 56.25 6.49519 45 0 0 0 
839 186 4 60 12.9904 45 0 0 0 
953 212 1 60 0 41.25 0 0 0 
954 212 2 59 0 48.75 0 0 0 
962 214 4 63.75 6.49519 45 0 0 0 
971 216 4 67.5 12.9904 45 0 0 0 
1084 242 4 67.5 0 45 0 0 0 
1092 244 1 71.25 6.49519 41.25 0 0 0 
1093 244 2 70.25 6.49519 48.75 0 0 0 
1102 246 1 75 12.9904 41.25 0 0 0 
1103 246 2 74 12.9904 48.75 0 0 0 
1218 272 1 75 0 41.25 0 0 0 
1219 272 2 74 0 48.75 0 0 0 
1227 274 1 78.75 6.49519 41.25 0 0 0 
1228 274 2 77.75 6.49519 48.75 0 0 0 
1237 276 4 82.5 12.9904 45 0 0 0 
1352 302 4 82.5 0 45 0 0 0 
6 2 2 96.5 0 48.75 -1 0 0 
1360 304 4 86.25 6.49519 45 0 0 0 
1368 306 4 90 12.9904 45 0 0 0 
1482 332 4 90 0 45 0 0 0 
1490 334 1 93.75 6.49519 41.25 0 0 0 
1491 334 2 92.75 6.49519 48.75 0 0 0 
31 8 1 11.25 19.4856 41.25 0 0 0 
32 8 2 10.25 19.4856 48.75 0 0 0 
1384 310 4 0 25.9808 45 1 0 0 
1508 338 4 3.75 19.4856 45 1 0 0 
1517 340 1 7.5 25.9808 41.25 1 0 0 
1518 340 2 6.5 25.9808 48.75 1 0 0 
40 10 1 15 25.9808 41.25 0 0 0 
41 10 2 14 25.9808 48.75 0 0 0 
169 38 4 18.75 19.4856 45 0 0 0 
178 40 1 22.5 25.9808 41.25 0 0 0 
179 40 2 21.5 25.9808 48.75 0 0 0 
308 68 1 26.25 19.4856 41.25 0 0 0 
309 68 2 25.25 19.4856 48.75 0 0 0 
317 70 4 30 25.9808 45 0 0 0 
1614 361 6 39.775 23.867 48.6 0 0 0 
1613 361 6 42.8863 20.7558 45.3 0 0 0 
1629 361 6 50.225 23.867 48.6 0 0 0 
1682 361 8 50.585 24.2955 43.2451 0 0 0 
722 160 1 60 25.9808 41.25 0 0 0 
723 160 2 59 25.9808 48.75 0 0 0 
847 188 1 63.75 19.4856 41.25 0 0 0 
848 188 2 62.75 19.4856 48.75 0 0 0 
857 190 1 67.5 25.9808 41.25 0 0 0 
858 190 2 66.5 25.9808 48.75 0 0 0 
979 218 1 71.25 19.4856 41.25 0 0 0 
980 218 2 70.25 19.4856 48.75 0 0 0 
988 220 1 75 25.9808 41.25 0 0 0 
989 220 2 74 25.9808 48.75 0 0 0 
1112 248 1 78.75 19.4856 41.25 0 0 0 
1113 248 2 77.75 19.4856 48.75 0 0 0 
1122 250 4 82.5 25.9808 45 0 0 0 
1246 278 1 86.25 19.4856 41.25 0 0 0 
1247 278 2 85.25 19.4856 48.75 0 0 0 
1256 280 4 90 25.9808 45 0 0 0 
1376 308 4 93.75 19.4856 45 0 0 0 
1273 284 4 0 38.9711 45 1 0 0 
1392 312 1 3.75 32.4759 41.25 1 0 0 
1393 312 2 2.75 32.4759 48.75 1 0 0 
1402 314 4 7.5 38.9711 45 1 0 0 
1526 342 1 11.25 32.4759 41.25 1 0 0 
1527 342 2 10.25 32.4759 48.75 1 0 0 
50 12 4 18.75 32.4759 45 0 0 0 
59 14 4 22.5 38.9711 45 0 0 0 
188 42 1 26.25 32.4759 41.25 0 0 0 
189 42 2 25.25 32.4759 48.75 0 0 0 
1536 344 4 15 38.9711 45 1 0 0 
198 44 4 30 38.9711 45 0 0 0 
424 94 4 45 38.9711 45 0 0 0 
1680 361 8 47.7567 32.0661 46.2549 0 0 0 
1681 361 8 51.5413 29.7079 43.0348 0 0 0 
620 138 4 60 38.9711 45 0 0 0 
732 162 4 63.75 32.4759 45 0 0 0 
741 164 1 67.5 38.9711 41.25 0 0 0 
742 164 2 66.5 38.9711 48.75 0 0 0 
867 192 4 71.25 32.4759 45 0 0 0 
875 194 4 75 38.9711 45 0 0 0 
998 222 4 78.75 32.4759 45 0 0 0 
1006 224 4 82.5 38.9711 45 0 0 0 
1131 252 4 86.25 32.4759 45 0 0 0 
1139 254 4 90 38.9711 45 0 0 0 
1265 282 4 93.75 32.4759 45 0 0 0 
1156 258 1 0 51.9615 41.25 1 0 0 
1281 286 4 3.75 45.4663 45 1 0 0 
1290 288 1 7.5 51.9615 41.25 1 0 0 
1291 288 2 6.5 51.9615 48.75 1 0 0 
1410 316 4 11.25 45.4663 45 1 0 0 
67 16 1 26.25 45.4663 41.25 0 0 0 
68 16 2 25.25 45.4663 48.75 0 0 0 
1419 318 4 15 51.9615 45 1 0 0 
1545 346 1 18.75 45.4663 41.25 1 0 0 
1546 346 2 17.75 45.4663 48.75 1 0 0 
1554 348 1 22.5 51.9615 41.25 1 0 0 
1555 348 2 21.5 51.9615 48.75 1 0 0 
77 18 1 30 51.9615 41.25 0 0 0 
78 18 2 29 51.9615 48.75 0 0 0 
207 46 4 33.75 45.4663 45 0 0 0 
216 48 4 37.5 51.9615 45 0 0 0 
326 72 1 41.25 45.4663 41.25 0 0 0 
327 72 2 40.25 45.4663 48.75 0 0 0 
336 74 1 45 51.9615 41.25 0 0 0 
337 74 2 44 51.9615 48.75 0 0 0 
433 96 4 48.75 45.4663 45 0 0 0 
442 98 1 52.5 51.9615 41.25 0 0 0 
443 98 2 51.5 51.9615 48.75 0 0 0 
524 116 2 55.25 45.4663 48.75 0 0 0 
523 116 1 56.25 45.4663 41.25 0 0 0 
532 118 4 60 51.9615 45 0 0 0 
629 140 4 63.75 45.4663 45 0 0 0 
638 142 4 67.5 51.9615 45 0 0 0 
750 166 4 71.25 45.4663 45 0 0 0 
758 168 4 75 51.9615 45 0 0 0 
883 196 4 78.75 45.4663 45 0 0 0 
892 198 4 82.5 51.9615 45 0 0 0 
1014 226 1 86.25 45.4663 41.25 0 0 0 
1015 226 2 85.25 45.4663 48.75 0 0 0 
1023 228 4 90 51.9615 45 0 0 0 
1147 256 4 93.75 45.4663 45 0 0 0 
1157 258 2 96.5 51.9615 48.75 0 0 0 
1040 232 1 0 64.9519 41.25 1 0 0 
1166 260 4 3.75 58.4567 45 1 0 0 
1175 262 1 7.5 64.9519 41.25 1 0 0 
1176 262 2 6.5 64.9519 48.75 1 0 0 
1299 290 4 11.25 58.4567 45 1 0 0 
1307 292 1 15 64.9519 41.25 1 0 0 
1308 292 2 14 64.9519 48.75 1 0 0 
1428 320 4 18.75 58.4567 45 1 0 0 
1437 322 4 22.5 64.9519 45 1 0 0 
1564 350 1 26.25 58.4567 41.25 1 0 0 
1565 350 2 25.25 58.4567 48.75 1 0 0 
87 20 1 33.75 58.4567 41.25 0 0 0 
88 20 2 32.75 58.4567 48.75 0 0 0 
96 22 1 37.5 64.9519 41.25 0 0 0 
97 22 2 36.5 64.9519 48.75 0 0 0 
224 50 4 41.25 58.4567 45 0 0 0 
1573 352 1 30 64.9519 41.25 1 0 0 
1574 352 2 29 64.9519 48.75 1 0 0 
233 52 1 45 64.9519 41.25 0 0 0 
234 52 2 44 64.9519 48.75 0 0 0 
345 76 4 48.75 58.4567 45 0 0 0 
354 78 4 52.5 64.9519 45 0 0 0 
453 100 2 55.25 58.4567 48.75 0 0 0 
452 100 1 56.25 58.4567 41.25 0 0 0 
462 102 1 60 64.9519 41.25 0 0 0 
463 102 2 59 64.9519 48.75 0 0 0 
540 120 1 63.75 58.4567 41.25 0 0 0 
541 120 2 62.75 58.4567 48.75 0 0 0 
550 122 1 67.5 64.9519 41.25 0 0 0 
551 122 2 66.5 64.9519 48.75 0 0 0 
647 144 1 71.25 58.4567 41.25 0 0 0 
648 144 2 70.25 58.4567 48.75 0 0 0 
657 146 1 75 64.9519 41.25 0 0 0 
658 146 2 74 64.9519 48.75 0 0 0 
766 170 1 78.75 58.4567 41.25 0 0 0 
767 170 2 77.75 58.4567 48.75 0 0 0 
775 172 1 82.5 64.9519 41.25 0 0 0 
776 172 2 81.5 64.9519 48.75 0 0 0 
901 200 4 86.25 58.4567 45 0 0 0 
910 202 4 90 64.9519 45 0 0 0 
1031 230 4 93.75 58.4567 45 0 0 0 
1041 232 2 96.5 64.9519 48.75 0 0 0 
927 206 4 0 77.9423 45 1 0 0 
1049 234 4 3.75 71.4471 45 1 0 0 
1057 236 4 7.5 77.9423 45 1 0 0 
1184 264 4 11.25 71.4471 45 1 0 0 
1192 266 4 15 77.9423 45 1 0 0 
1316 294 4 18.75 71.4471 45 1 0 0 
1324 296 4 22.5 77.9423 45 1 0 0 
1446 324 4 26.25 71.4471 45 1 0 0 
105 24 1 41.25 71.4471 41.25 0 0 0 
106 24 2 40.25 71.4471 48.75 0 0 0 
1455 326 4 30 77.9423 45 1 0 0 
1583 354 4 33.75 71.4471 45 1 0 0 
1591 356 4 37.5 77.9423 45 1 0 0 
114 26 1 45 77.9423 41.25 0 0 0 
115 26 2 44 77.9423 48.75 0 0 0 
243 54 1 48.75 71.4471 41.25 0 0 0 
244 54 2 47.75 71.4471 48.75 0 0 0 
252 56 1 52.5 77.9423 41.25 0 0 0 
253 56 2 51.5 77.9423 48.75 0 0 0 
362 80 4 56.25 71.4471 45 0 0 0 
371 82 4 60 77.9423 45 0 0 0 
471 104 4 63.75 71.4471 45 0 0 0 
479 106 4 67.5 77.9423 45 0 0 0 
559 124 1 71.25 71.4471 41.25 0 0 0 
560 124 2 70.25 71.4471 48.75 0 0 0 
568 126 1 75 77.9423 41.25 0 0 0 
569 126 2 74 77.9423 48.75 0 0 0 
667 148 4 78.75 71.4471 45 0 0 0 
676 150 1 82.5 77.9423 41.25 0 0 0 
677 150 2 81.5 77.9423 48.75 0 0 0 
784 174 1 86.25 71.4471 41.25 0 0 0 
785 174 2 85.25 71.4471 48.75 0 0 0 
794 176 4 90 77.9423 45 0 0 0 
918 204 1 93.75 71.4471 41.25 0 0 0 
919 204 2 92.75 71.4471 48.75 0 0 0 
811 180 1 0 90.9327 41.25 1 0 0 
935 208 4 3.75 84.4375 45 1 0 0 
944 210 4 7.5 90.9327 45 1 0 0 
1065 238 1 11.25 84.4375 41.25 1 0 0 
1066 238 2 10.25 84.4375 48.75 1 0 0 
1075 240 4 15 90.9327 45 1 0 0 
1201 268 4 18.75 84.4375 45 1 0 0 
1209 270 1 22.5 90.9327 41.25 1 0 0 
1210 270 2 21.5 90.9327 48.75 1 0 0 
1333 298 1 26.25 84.4375 41.25 1 0 0 
1334 298 2 25.25 84.4375 48.75 1 0 0 
1343 300 4 30 90.9327 45 1 0 0 
1463 328 1 33.75 84.4375 41.25 1 0 0 
1464 328 2 32.75 84.4375 48.75 1 0 0 
1472 330 1 37.5 90.9327 41.25 1 0 0 
1473 330 2 36.5 90.9327 48.75 1 0 0 
1599 358 1 41.25 84.4375 41.25 1 0 0 
1600 358 2 40.25 84.4375 48.75 1 0 0 
123 28 1 48.75 84.4375 41.25 0 0 0 
124 28 2 47.75 84.4375 48.75 0 0 0 
132 30 4 52.5 90.9327 45 0 0 0 
1608 360 1 45 90.9327 41.25 1 0 0 
1609 360 2 44 90.9327 48.75 1 0 0 
262 58 4 56.25 84.4375 45 0 0 0 
271 60 4 60 90.9327 45 0 0 0 
379 84 1 63.75 84.4375 41.25 0 0 0 
380 84 2 62.75 84.4375 48.75 0 0 0 
388 86 1 67.5 90.9327 41.25 0 0 0 
389 86 2 66.5 90.9327 48.75 0 0 0 
488 108 4 71.25 84.4375 45 0 0 0 
496 110 4 75 90.9327 45 0 0 0 
577 128 4 78.75 84.4375 45 0 0 0 
585 130 4 82.5 90.9327 45 0 0 0 
686 152 1 86.25 84.4375 41.25 0 0 0 
687 152 2 85.25 84.4375 48.75 0 0 0 
696 154 4 90 90.9327 45 0 0 0 
803 178 4 93.75 84.4375 45 0 0 0 
812 180 2 96.5 90.9327 48.75 0 0 0 
7 2 3 1 0 56.25 0 0 0 
16 4 2 2.75 6.49519 52.5 0 0 0 
17 4 3 4.75 6.49519 60 0 0 0 
24 6 2 6.5 12.9904 52.5 0 0 0 
25 6 3 8.5 12.9904 60 0 0 0 
143 32 3 8.5 0 56.25 0 0 0 
152 34 2 10.25 6.49519 52.5 0 0 0 
153 34 3 12.25 6.49519 60 0 0 0 
1502 336 3 1 12.9904 60 1 0 0 
161 36 2 14 12.9904 52.5 0 0 0 
162 36 3 16 12.9904 60 0 0 0 
282 62 3 16 0 56.25 0 0 0 
292 64 3 19.75 6.49519 56.25 0 0 0 
301 66 3 23.5 12.9904 56.25 0 0 0 
399 88 2 21.5 0 52.5 0 0 0 
400 88 3 23.5 0 60 0 0 0 
407 90 2 25.25 6.49519 52.5 0 0 0 
408 90 3 27.25 6.49519 60 0 0 0 
417 92 3 31 12.9904 56.25 0 0 0 
506 112 2 29 0 52.5 0 0 0 
507 112 3 31 0 60 0 0 0 
515 114 2 32.75 6.49519 52.5 0 0 0 
516 114 3 34.75 6.49519 60 0 0 0 
595 132 2 36.5 0 52.5 0 0 0 
596 132 3 38.5 0 60 0 0 0 
603 134 2 40.25 6.49519 52.5 0 0 0 
604 134 3 42.25 6.49519 60 0 0 0 
613 136 3 46 12.9904 56.25 0 0 0 
706 156 2 44 0 52.5 0 0 0 
707 156 3 46 0 60 0 0 0 
715 158 3 49.75 6.49519 56.25 0 0 0 
823 182 3 53.5 0 56.25 0 0 0 
832 184 2 55.25 6.49519 52.5 0 0 0 
833 184 3 57.25 6.49519 60 0 0 0 
840 186 2 59 12.9904 52.5 0 0 0 
841 186 3 61 12.9904 60 0 0 0 
955 212 3 61 0 56.25 0 0 0 
963 214 2 62.75 6.49519 52.5 0 0 0 
964 214 3 64.75 6.49519 60 0 0 0 
972 216 2 66.5 12.9904 52.5 0 0 0 
973 216 3 68.5 12.9904 60 0 0 0 
1085 242 2 66.5 0 52.5 0 0 0 
1086 242 3 68.5 0 60 0 0 0 
1094 244 3 72.25 6.49519 56.25 0 0 0 
1104 246 3 76 12.9904 56.25 0 0 0 
1220 272 3 76 0 56.25 0 0 0 
1229 274 3 79.75 6.49519 56.25 0 0 0 
1238 276 2 81.5 12.9904 52.5 0 0 0 
1239 276 3 83.5 12.9904 60 0 0 0 
1353 302 2 81.5 0 52.5 0 0 0 
1354 302 3 83.5 0 60 0 0 0 
1361 304 2 85.25 6.49519 52.5 0 0 0 
1362 304 3 87.25 6.49519 60 0 0 0 
1369 306 2 89 12.9904 52.5 0 0 0 
1370 306 3 91 12.9904 60 0 0 0 
1483 332 2 89 0 52.5 0 0 0 
1484 332 3 91 0 60 0 0 0 
1492 334 3 94.75 6.49519 56.25 0 0 0 
1501 336 2 96.5 12.9904 52.5 0 0 0 
33 8 3 12.25 19.4856 56.25 0 0 0 
1386 310 3 1 25.9808 60 1 0 0 
1509 338 2 2.75 19.4856 52.5 1 0 0 
1510 338 3 4.75 19.4856 60 1 0 0 
1519 340 3 8.5 25.9808 56.25 1 0 0 
42 10 3 16 25.9808 56.25 0 0 0 
170 38 2 17.75 19.4856 52.5 0 0 0 
171 38 3 19.75 19.4856 60 0 0 0 
180 40 3 23.5 25.9808 56.25 0 0 0 
310 68 3 27.25 19.4856 56.25 0 0 0 
318 70 2 29 25.9808 52.5 0 0 0 
319 70 3 31 25.9808 60 0 0 0 
1615 361 7 36.6637 20.7558 51.9 0 0 0 
1616 361 7 39.775 17.6445 55.2 0 0 0 
1618 361 6 39.775 23.867 61.8 0 0 0 
1617 361 6 42.8863 20.7558 58.5 0 0 0 
1630 361 6 47.1137 20.7558 51.9 0 0 0 
1631 361 7 50.225 17.6445 55.2 0 0 0 
1632 361 7 53.3363 20.7558 58.5 0 0 0 
1633 361 6 50.225 23.867 61.8 0 0 0 
724 160 3 61 25.9808 56.25 0 0 0 
849 188 3 64.75 19.4856 56.25 0 0 0 
859 190 3 68.5 25.9808 56.25 0 0 0 
981 218 3 72.25 19.4856 56.25 0 0 0 
990 220 3 76 25.9808 56.25 0 0 0 
1114 248 3 79.75 19.4856 56.25 0 0 0 
1123 250 2 81.5 25.9808 52.5 0 0 0 
1124 250 3 83.5 25.9808 60 0 0 0 
1248 278 3 87.25 19.4856 56.25 0 0 0 
1257 280 2 89 25.9808 52.5 0 0 0 
1258 280 3 91 25.9808 60 0 0 0 
1377 308 2 92.75 19.4856 52.5 0 0 0 
1378 308 3 94.75 19.4856 60 0 0 0 
1385 310 2 96.5 25.9808 52.5 0 0 0 
1275 284 3 1 38.9711 60 1 0 0 
1394 312 3 4.75 32.4759 56.25 1 0 0 
1403 314 2 6.5 38.9711 52.5 1 0 0 
1404 314 3 8.5 38.9711 60 1 0 0 
1528 342 3 12.25 32.4759 56.25 1 0 0 
51 12 2 17.75 32.4759 52.5 0 0 0 
52 12 3 19.75 32.4759 60 0 0 0 
60 14 2 21.5 38.9711 52.5 0 0 0 
61 14 3 23.5 38.9711 60 0 0 0 
190 42 3 27.25 32.4759 56.25 0 0 0 
1537 344 2 14 38.9711 52.5 1 0 0 
1538 344 3 16 38.9711 60 1 0 0 
199 44 2 29 38.9711 52.5 0 0 0 
200 44 3 31 38.9711 60 0 0 0 
1661 361 6 39.775 28.0945 55.2 0 0 0 
1663 361 7 39.775 34.317 61.8 0 0 0 
425 94 2 44 38.9711 52.5 0 0 0 
426 94 3 46 38.9711 60 0 0 0 
1645 361 6 47.1137 31.2058 51.9 0 0 0 
1646 361 6 50.225 28.0945 55.2 0 0 0 
1647 361 7 53.3363 31.2058 58.5 0 0 0 
1648 361 7 50.225 34.317 61.8 0 0 0 
1662 361 6 42.8863 31.2058 58.5 0 0 0 
621 138 2 59 38.9711 52.5 0 0 0 
622 138 3 61 38.9711 60 0 0 0 
733 162 2 62.75 32.4759 52.5 0 0 0 
734 162 3 64.75 32.4759 60 0 0 0 
743 164 3 68.5 38.9711 56.25 0 0 0 
868 192 2 70.25 32.4759 52.5 0 0 0 
869 192 3 72.25 32.4759 60 0 0 0 
876 194 2 74 38.9711 52.5 0 0 0 
877 194 3 76 38.9711 60 0 0 0 
999 222 2 77.75 32.4759 52.5 0 0 0 
1000 222 3 79.75 32.4759 60 0 0 0 
1007 224 2 81.5 38.9711 52.5 0 0 0 
1008 224 3 83.5 38.9711 60 0 0 0 
1132 252 2 85.25 32.4759 52.5 0 0 0 
1133 252 3 87.25 32.4759 60 0 0 0 
1140 254 2 89 38.9711 52.5 0 0 0 
1141 254 3 91 38.9711 60 0 0 0 
1266 282 2 92.75 32.4759 52.5 0 0 0 
1267 282 3 94.75 32.4759 60 0 0 0 
1274 284 2 96.5 38.9711 52.5 0 0 0 
1158 258 3 1 51.9615 56.25 1 0 0 
1282 286 2 2.75 45.4663 52.5 1 0 0 
1283 286 3 4.75 45.4663 60 1 0 0 
1292 288 3 8.5 51.9615 56.25 1 0 0 
1411 316 2 10.25 45.4663 52.5 1 0 0 
1412 316 3 12.25 45.4663 60 1 0 0 
69 16 3 27.25 45.4663 56.25 0 0 0 
1420 318 2 14 51.9615 52.5 1 0 0 
1421 318 3 16 51.9615 60 1 0 0 
1547 346 3 19.75 45.4663 56.25 1 0 0 
1556 348 3 23.5 51.9615 56.25 1 0 0 
79 18 3 31 51.9615 56.25 0 0 0 
208 46 2 32.75 45.4663 52.5 0 0 0 
209 46 3 34.75 45.4663 60 0 0 0 
217 48 2 36.5 51.9615 52.5 0 0 0 
218 48 3 38.5 51.9615 60 0 0 0 
328 72 3 42.25 45.4663 56.25 0 0 0 
338 74 3 46 51.9615 56.25 0 0 0 
434 96 2 47.75 45.4663 52.5 0 0 0 
435 96 3 49.75 45.4663 60 0 0 0 
444 98 3 53.5 51.9615 56.25 0 0 0 
525 116 3 57.25 45.4663 56.25 0 0 0 
533 118 2 59 51.9615 52.5 0 0 0 
534 118 3 61 51.9615 60 0 0 0 
630 140 2 62.75 45.4663 52.5 0 0 0 
631 140 3 64.75 45.4663 60 0 0 0 
639 142 2 66.5 51.9615 52.5 0 0 0 
640 142 3 68.5 51.9615 60 0 0 0 
751 166 2 70.25 45.4663 52.5 0 0 0 
752 166 3 72.25 45.4663 60 0 0 0 
759 168 2 74 51.9615 52.5 0 0 0 
760 168 3 76 51.9615 60 0 0 0 
884 196 2 77.75 45.4663 52.5 0 0 0 
885 196 3 79.75 45.4663 60 0 0 0 
893 198 2 81.5 51.9615 52.5 0 0 0 
894 198 3 83.5 51.9615 60 0 0 0 
1016 226 3 87.25 45.4663 56.25 0 0 0 
1024 228 2 89 51.9615 52.5 0 0 0 
1025 228 3 91 51.9615 60 0 0 0 
1148 256 2 92.75 45.4663 52.5 0 0 0 
1149 256 3 94.75 45.4663 60 0 0 0 
1042 232 3 1 64.9519 56.25 1 0 0 
1167 260 2 2.75 58.4567 52.5 1 0 0 
1168 260 3 4.75 58.4567 60 1 0 0 
1177 262 3 8.5 64.9519 56.25 1 0 0 
1300 290 2 10.25 58.4567 52.5 1 0 0 
1301 290 3 12.25 58.4567 60 1 0 0 
1309 292 3 16 64.9519 56.25 1 0 0 
1429 320 2 17.75 58.4567 52.5 1 0 0 
1430 320 3 19.75 58.4567 60 1 0 0 
1438 322 2 21.5 64.9519 52.5 1 0 0 
1439 322 3 23.5 64.9519 60 1 0 0 
1566 350 3 27.25 58.4567 56.25 1 0 0 
89 20 3 34.75 58.4567 56.25 0 0 0 
98 22 3 38.5 64.9519 56.25 0 0 0 
225 50 2 40.25 58.4567 52.5 0 0 0 
1575 352 3 31 64.9519 56.25 1 0 0 
226 50 3 42.25 58.4567 60 0 0 0 
235 52 3 46 64.9519 56.25 0 0 0 
346 76 2 47.75 58.4567 52.5 0 0 0 
347 76 3 49.75 58.4567 60 0 0 0 
355 78 2 51.5 64.9519 52.5 0 0 0 
356 78 3 53.5 64.9519 60 0 0 0 
454 100 3 57.25 58.4567 56.25 0 0 0 
464 102 3 61 64.9519 56.25 0 0 0 
542 120 3 64.75 58.4567 56.25 0 0 0 
552 122 3 68.5 64.9519 56.25 0 0 0 
649 144 3 72.25 58.4567 56.25 0 0 0 
659 146 3 76 64.9519 56.25 0 0 0 
768 170 3 79.75 58.4567 56.25 0 0 0 
777 172 3 83.5 64.9519 56.25 0 0 0 
902 200 2 85.25 58.4567 52.5 0 0 0 
903 200 3 87.25 58.4567 60 0 0 0 
911 202 2 89 64.9519 52.5 0 0 0 
912 202 3 91 64.9519 60 0 0 0 
1032 230 2 92.75 58.4567 52.5 0 0 0 
1033 230 3 94.75 58.4567 60 0 0 0 
929 206 3 1 77.9423 60 1 0 0 
1050 234 2 2.75 71.4471 52.5 1 0 0 
1051 234 3 4.75 71.4471 60 1 0 0 
1058 236 2 6.5 77.9423 52.5 1 0 0 
1059 236 3 8.5 77.9423 60 1 0 0 
1185 264 2 10.25 71.4471 52.5 1 0 0 
1186 264 3 12.25 71.4471 60 1 0 0 
1193 266 2 14 77.9423 52.5 1 0 0 
1194 266 3 16 77.9423 60 1 0 0 
1317 294 2 17.75 71.4471 52.5 1 0 0 
1318 294 3 19.75 71.4471 60 1 0 0 
1325 296 2 21.5 77.9423 52.5 1 0 0 
1326 296 3 23.5 77.9423 60 1 0 0 
1447 324 2 25.25 71.4471 52.5 1 0 0 
1448 324 3 27.25 71.4471 60 1 0 0 
1456 326 2 29 77.9423 52.5 1 0 0 
1457 326 3 31 77.9423 60 1 0 0 
1584 354 2 32.75 71.4471 52.5 1 0 0 
1585 354 3 34.75 71.4471 60 1 0 0 
1592 356 2 36.5 77.9423 52.5 1 0 0 
1593 356 3 38.5 77.9423 60 1 0 0 
107 24 3 42.25 71.4471 56.25 0 0 0 
116 26 3 46 77.9423 56.25 0 0 0 
245 54 3 49.75 71.4471 56.25 0 0 0 
254 56 3 53.5 77.9423 56.25 0 0 0 
363 80 2 55.25 71.4471 52.5 0 0 0 
364 80 3 57.25 71.4471 60 0 0 0 
372 82 2 59 77.9423 52.5 0 0 0 
373 82 3 61 77.9423 60 0 0 0 
472 104 2 62.75 71.4471 52.5 0 0 0 
473 104 3 64.75 71.4471 60 0 0 0 
480 106 2 66.5 77.9423 52.5 0 0 0 
481 106 3 68.5 77.9423 60 0 0 0 
561 124 3 72.25 71.4471 56.25 0 0 0 
570 126 3 76 77.9423 56.25 0 0 0 
668 148 2 77.75 71.4471 52.5 0 0 0 
669 148 3 79.75 71.4471 60 0 0 0 
678 150 3 83.5 77.9423 56.25 0 0 0 
786 174 3 87.25 71.4471 56.25 0 0 0 
795 176 2 89 77.9423 52.5 0 0 0 
796 176 3 91 77.9423 60 0 0 0 
920 204 3 94.75 71.4471 56.25 0 0 0 
928 206 2 96.5 77.9423 52.5 0 0 0 
813 180 3 1 90.9327 56.25 1 0 0 
936 208 2 2.75 84.4375 52.5 1 0 0 
937 208 3 4.75 84.4375 60 1 0 0 
945 210 2 6.5 90.9327 52.5 1 0 0 
946 210 3 8.5 90.9327 60 1 0 0 
1067 238 3 12.25 84.4375 56.25 1 0 0 
1076 240 2 14 90.9327 52.5 1 0 0 
1077 240 3 16 90.9327 60 1 0 0 
1202 268 2 17.75 84.4375 52.5 1 0 0 
1203 268 3 19.75 84.4375 60 1 0 0 
1211 270 3 23.5 90.9327 56.25 1 0 0 
1335 298 3 27.25 84.4375 56.25 1 0 0 
1344 300 2 29 90.9327 52.5 1 0 0 
1345 300 3 31 90.9327 60 1 0 0 
1465 328 3 34.75 84.4375 56.25 1 0 0 
1474 330 3 38.5 90.9327 56.25 1 0 0 
125 28 3 49.75 84.4375 56.25 0 0 0 
133 30 2 51.5 90.9327 52.5 0 0 0 
134 30 3 53.5 90.9327 60 0 0 0 
263 58 2 55.25 84.4375 52.5 0 0 0 
1601 358 3 42.25 84.4375 56.25 1 0 0 
1610 360 3 46 90.9327 56.25 1 0 0 
264 58 3 57.25 84.4375 60 0 0 0 
272 60 2 59 90.9327 52.5 0 0 0 
273 60 3 61 90.9327 60 0 0 0 
381 84 3 64.75 84.4375 56.25 0 0 0 
390 86 3 68.5 90.9327 56.25 0 0 0 
489 108 2 70.25 84.4375 52.5 0 0 0 
490 108 3 72.25 84.4375 60 0 0 0 
497 110 2 74 90.9327 52.5 0 0 0 
498 110 3 76 90.9327 60 0 0 0 
578 128 2 77.75 84.4375 52.5 0 0 0 
579 128 3 79.75 84.4375 60 0 0 0 
586 130 2 81.5 90.9327 52.5 0 0 0 
587 130 3 83.5 90.9327 60 0 0 0 
688 152 3 87.25 84.4375 56.25 0 0 0 
697 154 2 89 90.9327 52.5 0 0 0 
698 154 3 91 90.9327 60 0 0 0 
804 178 2 92.75 84.4375 52.5 0 0 0 
805 178 3 94.75 84.4375 60 0 0 0 
9 2 3 1 0 71.25 0 0 0 
18 4 3 2.75 6.49519 67.5 0 0 0 
26 6 3 6.5 12.9904 67.5 0 0 0 
144 32 3 6.5 0 63.75 0 0 0 
145 32 3 8.5 0 71.25 0 0 0 
154 34 3 10.25 6.49519 67.5 0 0 0 
163 36 3 14 12.9904 67.5 0 0 0 
283 62 3 14 0 63.75 0 0 0 
284 62 3 16 0 71.25 0 0 0 
293 64 3 17.75 6.49519 63.75 0 0 0 
294 64 3 19.75 6.49519 71.25 0 0 0 
302 66 3 21.5 12.9904 63.75 0 0 0 
303 66 3 23.5 12.9904 71.25 0 0 0 
401 88 3 21.5 0 67.5 0 0 0 
409 90 3 25.25 6.49519 67.5 0 0 0 
418 92 3 29 12.9904 63.75 0 0 0 
419 92 3 31 12.9904 71.25 0 0 0 
508 112 3 29 0 67.5 0 0 0 
517 114 3 32.75 6.49519 67.5 0 0 0 
597 132 3 36.5 0 67.5 0 0 0 
605 134 3 40.25 6.49519 67.5 0 0 0 
614 136 3 44 12.9904 63.75 0 0 0 
615 136 3 46 12.9904 71.25 0 0 0 
708 156 3 44 0 67.5 0 0 0 
716 158 3 47.75 6.49519 63.75 0 0 0 
717 158 3 49.75 6.49519 71.25 0 0 0 
824 182 3 51.5 0 63.75 0 0 0 
825 182 3 53.5 0 71.25 0 0 0 
834 184 3 55.25 6.49519 67.5 0 0 0 
842 186 3 59 12.9904 67.5 0 0 0 
956 212 3 59 0 63.75 0 0 0 
957 212 3 61 0 71.25 0 0 0 
965 214 3 62.75 6.49519 67.5 0 0 0 
974 216 3 66.5 12.9904 67.5 0 0 0 
1087 242 3 66.5 0 67.5 0 0 0 
1095 244 3 70.25 6.49519 63.75 0 0 0 
1096 244 3 72.25 6.49519 71.25 0 0 0 
1105 246 3 74 12.9904 63.75 0 0 0 
1106 246 3 76 12.9904 71.25 0 0 0 
1221 272 3 74 0 63.75 0 0 0 
1222 272 3 76 0 71.25 0 0 0 
1230 274 3 77.75 6.49519 63.75 0 0 0 
1231 274 3 79.75 6.49519 71.25 0 0 0 
1240 276 3 81.5 12.9904 67.5 0 0 0 
1355 302 3 81.5 0 67.5 0 0 0 
8 2 3 96.5 0 63.75 -1 0 0 
1363 304 3 85.25 6.49519 67.5 0 0 0 
1371 306 3 89 12.9904 67.5 0 0 0 
1485 332 3 89 0 67.5 0 0 0 
1493 334 3 92.75 6.49519 63.75 0 0 0 
1494 334 3 94.75 6.49519 71.25 0 0 0 
1503 336 3 96.5 12.9904 67.5 0 0 0 
34 8 3 10.25 19.4856 63.75 0 0 0 
35 8 3 12.25 19.4856 71.25 0 0 0 
1511 338 3 2.75 19.4856 67.5 1 0 0 
1520 340 3 6.5 25.9808 63.75 1 0 0 
1521 340 3 8.5 25.9808 71.25 1 0 0 
43 10 3 14 25.9808 63.75 0 0 0 
44 10 3 16 25.9808 71.25 0 0 0 
172 38 3 17.75 19.4856 67.5 0 0 0 
181 40 3 21.5 25.9808 63.75 0 0 0 
182 40 3 23.5 25.9808 71.25 0 0 0 
311 68 3 25.25 19.4856 63.75 0 0 0 
312 68 3 27.25 19.4856 71.25 0 0 0 
320 70 3 29 25.9808 67.5 0 0 0 
1619 361 7 36.6637 20.7558 65.1 0 0 0 
1620 361 7 39.775 17.6445 68.4 0 0 0 
1621 361 6 42.8863 20.7558 71.7 0 0 0 
1634 361 6 47.1137 20.7558 65.1 0 0 0 
1635 361 7 50.225 17.6445 68.4 0 0 0 
1636 361 7 53.3363 20.7558 71.7 0 0 0 
725 160 3 59 25.9808 63.75 0 0 0 
726 160 3 61 25.9808 71.25 0 0 0 
850 188 3 62.75 19.4856 63.75 0 0 0 
851 188 3 64.75 19.4856 71.25 0 0 0 
860 190 3 66.5 25.9808 63.75 0 0 0 
861 190 3 68.5 25.9808 71.25 0 0 0 
982 218 3 70.25 19.4856 63.75 0 0 0 
983 218 3 72.25 19.4856 71.25 0 0 0 
991 220 3 74 25.9808 63.75 0 0 0 
992 220 3 76 25.9808 71.25 0 0 0 
1115 248 3 77.75 19.4856 63.75 0 0 0 
1116 248 3 79.75 19.4856 71.25 0 0 0 
1125 250 3 81.5 25.9808 67.5 0 0 0 
1249 278 3 85.25 19.4856 63.75 0 0 0 
1250 278 3 87.25 19.4856 71.25 0 0 0 
1259 280 3 89 25.9808 67.5 0 0 0 
1379 308 3 92.75 19.4856 67.5 0 0 0 
1387 310 3 96.5 25.9808 67.5 0 0 0 
1395 312 3 2.75 32.4759 63.75 1 0 0 
1396 312 3 4.75 32.4759 71.25 1 0 0 
1405 314 3 6.5 38.9711 67.5 1 0 0 
1529 342 3 10.25 32.4759 63.75 1 0 0 
1530 342 3 12.25 32.4759 71.25 1 0 0 
53 12 3 17.75 32.4759 67.5 0 0 0 
62 14 3 21.5 38.9711 67.5 0 0 0 
191 42 3 25.25 32.4759 63.75 0 0 0 
192 42 3 27.25 32.4759 71.25 0 0 0 
1539 344 3 14 38.9711 67.5 1 0 0 
201 44 3 29 38.9711 67.5 0 0 0 
1664 361 7 36.6637 31.2058 65.1 0 0 0 
1665 361 6 39.775 28.0945 68.4 0 0 0 
427 94 3 44 38.9711 67.5 0 0 0 
1649 361 6 47.1137 31.2058 65.1 0 0 0 
1650 361 6 50.225 28.0945 68.4 0 0 0 
1651 361 7 53.3363 31.2058 71.7 0 0 0 
1666 361 6 42.8863 31.2058 71.7 0 0 0 
623 138 3 59 38.9711 67.5 0 0 0 
735 162 3 62.75 32.4759 67.5 0 0 0 
744 164 3 66.5 38.9711 63.75 0 0 0 
745 164 3 68.5 38.9711 71.25 0 0 0 
870 192 3 70.25 32.4759 67.5 0 0 0 
878 194 3 74 38.9711 67.5 0 0 0 
1001 222 3 77.75 32.4759 67.5 0 0 0 
1009 224 3 81.5 38.9711 67.5 0 0 0 
1134 252 3 85.25 32.4759 67.5 0 0 0 
1142 254 3 89 38.9711 67.5 0 0 0 
1268 282 3 92.75 32.4759 67.5 0 0 0 
1276 284 3 96.5 38.9711 67.5 0 0 0 
1160 258 3 1 51.9615 71.25 1 0 0 
1284 286 3 2.75 45.4663 67.5 1 0 0 
1293 288 3 6.5 51.9615 63.75 1 0 0 
1294 288 3 8.5 51.9615 71.25 1 0 0 
1413 316 3 10.25 45.4663 67.5 1 0 0 
70 16 3 25.25 45.4663 63.75 0 0 0 
71 16 3 27.25 45.4663 71.25 0 0 0 
1422 318 3 14 51.9615 67.5 1 0 0 
1548 346 3 17.75 45.4663 63.75 1 0 0 
1549 346 3 19.75 45.4663 71.25 1 0 0 
1557 348 3 21.5 51.9615 63.75 1 0 0 
1558 348 3 23.5 51.9615 71.25 1 0 0 
80 18 3 29 51.9615 63.75 0 0 0 
81 18 3 31 51.9615 71.25 0 0 0 
210 46 3 32.75 45.4663 67.5 0 0 0 
219 48 3 36.5 51.9615 67.5 0 0 0 
329 72 3 40.25 45.4663 63.75 0 0 0 
330 72 3 42.25 45.4663 71.25 0 0 0 
339 74 3 44 51.9615 63.75 0 0 0 
340 74 3 46 51.9615 71.25 0 0 0 
436 96 3 47.75 45.4663 67.5 0 0 0 
445 98 3 51.5 51.9615 63.75 0 0 0 
446 98 3 53.5 51.9615 71.25 0 0 0 
526 116 3 55.25 45.4663 63.75 0 0 0 
527 116 3 57.25 45.4663 71.25 0 0 0 
535 118 3 59 51.9615 67.5 0 0 0 
632 140 3 62.75 45.4663 67.5 0 0 0 
641 142 3 66.5 51.9615 67.5 0 0 0 
753 166 3 70.25 45.4663 67.5 0 0 0 
761 168 3 74 51.9615 67.5 0 0 0 
886 196 3 77.75 45.4663 67.5 0 0 0 
895 198 3 81.5 51.9615 67.5 0 0 0 
1017 226 3 85.25 45.4663 63.75 0 0 0 
1018 226 3 87.25 45.4663 71.25 0 0 0 
1026 228 3 89 51.9615 67.5 0 0 0 
1150 256 3 92.75 45.4663 67.5 0 0 0 
1159 258 3 96.5 51.9615 63.75 0 0 0 
1044 232 3 1 64.9519 71.25 1 0 0 
1169 260 3 2.75 58.4567 67.5 1 0 0 
1178 262 3 6.5 64.9519 63.75 1 0 0 
1179 262 3 8.5 64.9519 71.25 1 0 0 
1302 290 3 10.25 58.4567 67.5 1 0 0 
1310 292 3 14 64.9519 63.75 1 0 0 
1311 292 3 16 64.9519 71.25 1 0 0 
1431 320 3 17.75 58.4567 67.5 1 0 0 
1440 322 3 21.5 64.9519 67.5 1 0 0 
1567 350 3 25.25 58.4567 63.75 1 0 0 
1568 350 3 27.25 58.4567 71.25 1 0 0 
90 20 3 32.75 58.4567 63.75 0 0 0 
91 20 3 34.75 58.4567 71.25 0 0 0 
99 22 3 36.5 64.9519 63.75 0 0 0 
100 22 3 38.5 64.9519 71.25 0 0 0 
227 50 3 40.25 58.4567 67.5 0 0 0 
1576 352 3 29 64.9519 63.75 1 0 0 
1577 352 3 31 64.9519 71.25 1 0 0 
236 52 3 44 64.9519 63.75 0 0 0 
237 52 3 46 64.9519 71.25 0 0 0 
348 76 3 47.75 58.4567 67.5 0 0 0 
357 78 3 51.5 64.9519 67.5 0 0 0 
455 100 3 55.25 58.4567 63.75 0 0 0 
456 100 3 57.25 58.4567 71.25 0 0 0 
465 102 3 59 64.9519 63.75 0 0 0 
466 102 3 61 64.9519 71.25 0 0 0 
543 120 3 62.75 58.4567 63.75 0 0 0 
544 120 3 64.75 58.4567 71.25 0 0 0 
553 122 3 66.5 64.9519 63.75 0 0 0 
554 122 3 68.5 64.9519 71.25 0 0 0 
650 144 3 70.25 58.4567 63.75 0 0 0 
651 144 3 72.25 58.4567 71.25 0 0 0 
660 146 3 74 64.9519 63.75 0 0 0 
661 146 3 76 64.9519 71.25 0 0 0 
769 170 3 77.75 58.4567 63.75 0 0 0 
770 170 3 79.75 58.4567 71.25 0 0 0 
778 172 3 81.5 64.9519 63.75 0 0 0 
779 172 3 83.5 64.9519 71.25 0 0 0 
904 200 3 85.25 58.4567 67.5 0 0 0 
913 202 3 89 64.9519 67.5 0 0 0 
1034 230 3 92.75 58.4567 67.5 0 0 0 
1043 232 3 96.5 64.9519 63.75 0 0 0 
1052 234 3 2.75 71.4471 67.5 1 0 0 
1060 236 3 6.5 77.9423 67.5 1 0 0 
1187 264 3 10.25 71.4471 67.5 1 0 0 
1195 266 3 14 77.9423 67.5 1 0 0 
1319 294 3 17.75 71.4471 67.5 1 0 0 
1327 296 3 21.5 77.9423 67.5 1 0 0 
1449 324 3 25.25 71.4471 67.5 1 0 0 
108 24 3 40.25 71.4471 63.75 0 0 0 
1458 326 3 29 77.9423 67.5 1 0 0 
1586 354 3 32.75 71.4471 67.5 1 0 0 
1594 356 3 36.5 77.9423 67.5 1 0 0 
109 24 3 42.25 71.4471 71.25 0 0 0 
117 26 3 44 77.9423 63.75 0 0 0 
118 26 3 46 77.9423 71.25 0 0 0 
246 54 3 47.75 71.4471 63.75 0 0 0 
247 54 3 49.75 71.4471 71.25 0 0 0 
255 56 3 51.5 77.9423 63.75 0 0 0 
256 56 3 53.5 77.9423 71.25 0 0 0 
365 80 3 55.25 71.4471 67.5 0 0 0 
374 82 3 59 77.9423 67.5 0 0 0 
474 104 3 62.75 71.4471 67.5 0 0 0 
482 106 3 66.5 77.9423 67.5 0 0 0 
562 124 3 70.25 71.4471 63.75 0 0 0 
563 124 3 72.25 71.4471 71.25 0 0 0 
571 126 3 74 77.9423 63.75 0 0 0 
572 126 3 76 77.9423 71.25 0 0 0 
670 148 3 77.75 71.4471 67.5 0 0 0 
679 150 3 81.5 77.9423 63.75 0 0 0 
680 150 3 83.5 77.9423 71.25 0 0 0 
787 174 3 85.25 71.4471 63.75 0 0 0 
788 174 3 87.25 71.4471 71.25 0 0 0 
797 176 3 89 77.9423 67.5 0 0 0 
921 204 3 92.75 71.4471 63.75 0 0 0 
922 204 3 94.75 71.4471 71.25 0 0 0 
930 206 3 96.5 77.9423 67.5 0 0 0 
815 180 3 1 90.9327 71.25 1 0 0 
938 208 3 2.75 84.4375 67.5 1 0 0 
947 210 3 6.5 90.9327 67.5 1 0 0 
1068 238 3 10.25 84.4375 63.75 1 0 0 
1069 238 3 12.25 84.4375 71.25 1 0 0 
1078 240 3 14 90.9327 67.5 1 0 0 
1204 268 3 17.75 84.4375 67.5 1 0 0 
1212 270 3 21.5 90.9327 63.75 1 0 0 
1213 270 3 23.5 90.9327 71.25 1 0 0 
1336 298 3 25.25 84.4375 63.75 1 0 0 
1337 298 3 27.25 84.4375 71.25 1 0 0 
1346 300 3 29 90.9327 67.5 1 0 0 
1466 328 3 32.75 84.4375 63.75 1 0 0 
1467 328 3 34.75 84.4375 71.25 1 0 0 
1475 330 3 36.5 90.9327 63.75 1 0 0 
1476 330 3 38.5 90.9327 71.25 1 0 0 
1602 358 3 40.25 84.4375 63.75 1 0 0 
126 28 3 47.75 84.4375 63.75 0 0 0 
127 28 3 49.75 84.4375 71.25 0 0 0 
135 30 3 51.5 90.9327 67.5 0 0 0 
265 58 3 55.25 84.4375 67.5 0 0 0 
1603 358 3 42.25 84.4375 71.25 1 0 0 
1611 360 3 44 90.9327 63.75 1 0 0 
1612 360 3 46 90.9327 71.25 1 0 0 
274 60 3 59 90.9327 67.5 0 0 0 
382 84 3 62.75 84.4375 63.75 0 0 0 
383 84 3 64.75 84.4375 71.25 0 0 0 
391 86 3 66.5 90.9327 63.75 0 0 0 
392 86 3 68.5 90.9327 71.25 0 0 0 
491 108 3 70.25 84.4375 67.5 0 0 0 
499 110 3 74 90.9327 67.5 0 0 0 
580 128 3 77.75 84.4375 67.5 0 0 0 
588 130 3 81.5 90.9327 67.5 0 0 0 
689 152 3 85.25 84.4375 63.75 0 0 0 
690 152 3 87.25 84.4375 71.25 0 0 0 
699 154 3 89 90.9327 67.5 0 0 0 
806 178 3 92.75 84.4375 67.5 0 0 0 
814 180 3 96.5 90.9327 63.75 0 0 0 
13 3 3 2.75 6.49519 86.25 0 0 0 
14 3 3 4.75 6.49519 78.75 0 0 0 
22 5 3 6.5 12.9904 82.5 0 0 0 
139 31 3 6.5 0 86.25 0 0 0 
140 31 3 8.5 0 78.75 0 0 0 
149 33 3 10.25 6.49519 86.25 0 0 0 
150 33 3 12.25 6.49519 78.75 0 0 0 
1499 335 3 1 12.9904 78.75 1 0 0 
158 35 3 14 12.9904 86.25 0 0 0 
159 35 3 16 12.9904 78.75 0 0 0 
278 61 3 14 0 86.25 0 0 0 
279 61 3 16 0 78.75 0 0 0 
288 63 3 17.75 6.49519 86.25 0 0 0 
289 63 3 19.75 6.49519 78.75 0 0 0 
298 65 3 21.5 12.9904 82.5 0 0 0 
396 87 3 21.5 0 86.25 0 0 0 
397 87 3 23.5 0 78.75 0 0 0 
405 89 3 25.25 6.49519 82.5 0 0 0 
413 91 3 29 12.9904 86.25 0 0 0 
414 91 3 31 12.9904 78.75 0 0 0 
503 111 3 29 0 86.25 0 0 0 
504 111 3 31 0 78.75 0 0 0 
512 113 3 32.75 6.49519 86.25 0 0 0 
513 113 3 34.75 6.49519 78.75 0 0 0 
592 131 3 36.5 0 86.25 0 0 0 
593 131 3 38.5 0 78.75 0 0 0 
601 133 3 40.25 6.49519 82.5 0 0 0 
609 135 3 44 12.9904 86.25 0 0 0 
610 135 3 46 12.9904 78.75 0 0 0 
703 155 3 44 0 86.25 0 0 0 
704 155 3 46 0 78.75 0 0 0 
712 157 3 47.75 6.49519 82.5 0 0 0 
819 181 3 51.5 0 86.25 0 0 0 
820 181 3 53.5 0 78.75 0 0 0 
829 183 3 55.25 6.49519 86.25 0 0 0 